%VERSION  VERSION_STAMP = V0001.000  DATE = 08/23/26  12:50:59                  
%FLAG TITLE                                                                     
%FORMAT(20a4)                                                                   
*****                                                                           
%FLAG POINTERS                                                                  
%FORMAT(10I8)                                                                   
      44       8      17      31      35      44      66      73       0       0
     229       1      31      44      73      21      44      17      12       0
       0       0       0       0       0       0       0       0      44       0
       0
%FLAG ATOM_NAME                                                                 
%FORMAT(20a4)                                                                   
C   N   C1  C2  C3  N1  C4  C5  C6  C7  C8  N2  C9  C10 O   C11 C12 N3  N4  C13 
C14 C15 C16 C17 C18 C19 C20 H   H1  H2  H3  H4  H5  H6  H7  H8  H9  H10 H11 H12 
H13 H14 H15 H16 
%FLAG CHARGE                                                                    
%FORMAT(5E16.8)                                                                 
  4.10931087E-01 -4.28641341E+00  4.57561953E-01  6.51611226E-01  1.01964702E+00
 -3.45644231E+00  1.34948887E+00 -6.00898565E-01 -4.89122977E-01  1.96155771E+00
  1.90215301E+00 -4.46081904E+00  6.64476169E-01  1.02372881E+00 -5.74259384E+00
  3.93474124E-01  9.94281577E-01 -3.44669338E+00 -4.15087594E+00  4.44933899E-01
  1.07278325E+00 -5.21686227E-01 -1.04552268E+00 -1.12863460E+00 -1.13435640E+00
 -1.12863460E+00 -1.04552268E+00  8.26454194E-01  8.26454194E-01  8.26454194E-01
  1.48885302E+00  1.57611962E+00  1.17860014E+00  1.18856774E+00  1.65700841E+00
  1.57508095E+00  1.48832457E+00  9.86318432E-01  9.86318432E-01  1.14120798E+00
  1.13495773E+00  1.13475729E+00  1.13495773E+00  1.14120798E+00
%FLAG ATOMIC_NUMBER                                                             
%FORMAT(10I8)                                                                   
       6       7       6       6       6       7       6       6       6       6
       6       7       6       6       8       6       6       7       7       6
       6       6       6       6       6       6       6       1       1       1
       1       1       1       1       1       1       1       1       1       1
       1       1       1       1
%FLAG MASS                                                                      
%FORMAT(5E16.8)                                                                 
  1.20100000E+01  1.40100000E+01  1.20100000E+01  1.20100000E+01  1.20100000E+01
  1.40100000E+01  1.20100000E+01  1.20100000E+01  1.20100000E+01  1.20100000E+01
  1.20100000E+01  1.40100000E+01  1.20100000E+01  1.20100000E+01  1.60000000E+01
  1.20100000E+01  1.20100000E+01  1.40100000E+01  1.40100000E+01  1.20100000E+01
  1.20100000E+01  1.20100000E+01  1.20100000E+01  1.20100000E+01  1.20100000E+01
  1.20100000E+01  1.20100000E+01  1.00800000E+00  1.00800000E+00  1.00800000E+00
  1.00800000E+00  1.00800000E+00  1.00800000E+00  1.00800000E+00  1.00800000E+00
  1.00800000E+00  1.00800000E+00  1.00800000E+00  1.00800000E+00  1.00800000E+00
  1.00800000E+00  1.00800000E+00  1.00800000E+00  1.00800000E+00
%FLAG ATOM_TYPE_INDEX                                                           
%FORMAT(10I8)                                                                   
       1       2       3       3       3       4       3       3       3       3
       3       4       3       3       5       3       3       4       2       3
       1       3       3       3       3       3       3       6       6       6
       7       7       8       8       7       7       7       6       6       8
       8       8       8       8
%FLAG NUMBER_EXCLUDED_ATOMS                                                     
%FORMAT(10I8)                                                                   
       9      10      11      10       6       6      10       7       8       9
       9       5      10       5       3       8       6       8       9       6
      10      11      10       7       7       5       6       2       1       1
       1       1       1       1       1       1       1       1       1       1
       1       1       1       1
%FLAG NONBONDED_PARM_INDEX                                                      
%FORMAT(10I8)                                                                   
       1       2       4       7      11      16      22      29       2       3
       5       8      12      17      23      30       4       5       6       9
      13      18      24      31       7       8       9      10      14      19
      25      32      11      12      13      14      15      20      26      33
      16      17      18      19      20      21      27      34      22      23
      24      25      26      27      28      35      29      30      31      32
      33      34      35      36
%FLAG RESIDUE_LABEL                                                             
%FORMAT(20a4)                                                                   
UNL 
%FLAG RESIDUE_POINTER                                                           
%FORMAT(10I8)                                                                   
       1
%FLAG BOND_FORCE_CONSTANT                                                       
%FORMAT(5E16.8)                                                                 
  2.54790000E+02  3.44220000E+02  3.35500000E+02  2.90410000E+02  3.86240000E+02
  3.68720000E+02  3.21490000E+02  2.88790000E+02  4.17790000E+02  3.67290000E+02
  3.54250000E+02  3.86490000E+02  3.60690000E+02  3.43340000E+02  2.96500000E+02
  3.22020000E+02  3.52890000E+02  4.19720000E+02  2.90410000E+02  3.32450000E+02
  2.43910000E+02
%FLAG BOND_EQUIL_VALUE                                                          
%FORMAT(5E16.8)                                                                 
  1.46390000E+00  1.09690000E+00  1.38030000E+00  1.35700000E+00  1.37300000E+00
  1.08090000E+00  1.42790000E+00  1.46100000E+00  1.31710000E+00  1.08180000E+00
  1.39860000E+00  1.33920000E+00  1.08600000E+00  1.36880000E+00  1.45280000E+00
  1.42740000E+00  1.36080000E+00  1.31580000E+00  1.35700000E+00  1.38300000E+00
  1.51470000E+00
%FLAG ANGLE_FORCE_CONSTANT                                                      
%FORMAT(5E16.8)                                                                 
  7.52100000E+01  8.25400000E+01  4.81000000E+01  7.28100000E+01  4.79900000E+01
  9.39000000E+01  8.73600000E+01  6.45700000E+01  6.16400000E+01  4.39500000E+01
  6.84600000E+01  4.29600000E+01  6.20200000E+01  6.80300000E+01  6.04300000E+01
  5.03500000E+01  6.36700000E+01  4.49000000E+01  8.31500000E+01  6.81700000E+01
  7.90000000E+01  6.21900000E+01  8.99300000E+01  6.40000000E+01  6.06500000E+01
  6.78700000E+01  8.08000000E+01  4.42000000E+01  6.21700000E+01  6.37700000E+01
  5.73400000E+01  6.70300000E+01  4.29500000E+01  7.19900000E+01  9.39400000E+01
  5.03500000E+01  8.81800000E+01  8.26500000E+01  4.80800000E+01  6.53500000E+01
  7.54900000E+01  6.07400000E+01  4.38100000E+01  3.56400000E+01
%FLAG ANGLE_EQUIL_VALUE                                                         
%FORMAT(5E16.8)                                                                 
  2.21046045E+00  2.09771213E+00  1.89822091E+00  1.86313978E+00  2.11202383E+00
  1.81217614E+00  1.99962458E+00  2.02824799E+00  2.16927066E+00  2.25339556E+00
  2.10661331E+00  2.21220578E+00  2.10888224E+00  2.04797022E+00  2.17921904E+00
  2.06193286E+00  2.09474507E+00  2.09230160E+00  2.04622489E+00  2.14570870E+00
  2.07886256E+00  2.11027850E+00  2.09195254E+00  2.02510640E+00  2.17695011E+00
  2.07135764E+00  2.03697464E+00  2.22773921E+00  2.10940584E+00  2.08025883E+00
  2.00835123E+00  2.19998847E+00  2.21447470E+00  1.90223517E+00  1.81235067E+00
  2.06577259E+00  1.95843479E+00  2.09212707E+00  2.09736306E+00  1.97396823E+00
  2.19038915E+00  2.10888224E+00  1.91288168E+00  1.89455572E+00
%FLAG DIHEDRAL_FORCE_CONSTANT                                                   
%FORMAT(5E16.8)                                                                 
  1.70000000E+00  4.80000000E+00  4.00000000E+00  4.75000000E+00  0.00000000E+00
  3.77000000E+00  1.47000000E+00  3.62500000E+00  5.85000000E-01  8.20000000E-01
  1.00000000E+00  7.50000000E-01  9.00000000E-01  6.50000000E-01  1.05000000E+00
  2.95000000E-01  1.10000000E+00
%FLAG DIHEDRAL_PERIODICITY                                                      
%FORMAT(5E16.8)                                                                 
  2.00000000E+00  2.00000000E+00  2.00000000E+00  2.00000000E+00  2.00000000E+00
  2.00000000E+00  1.00000000E+00  2.00000000E+00  2.00000000E+00  1.00000000E+00
  2.00000000E+00  3.00000000E+00  2.00000000E+00  1.00000000E+00  2.00000000E+00
  2.00000000E+00  2.00000000E+00
%FLAG DIHEDRAL_PHASE                                                            
%FORMAT(5E16.8)                                                                 
  3.14159400E+00  3.14159400E+00  3.14159400E+00  3.14159400E+00  0.00000000E+00
  3.14159400E+00  3.14159400E+00  3.14159400E+00  3.14159400E+00  3.14159400E+00
  3.14159400E+00  3.14159400E+00  3.14159400E+00  3.14159400E+00  3.14159400E+00
  3.14159400E+00  3.14159400E+00
%FLAG SCEE_SCALE_FACTOR                                                         
%FORMAT(5E16.8)                                                                 
  1.20000000E+00  1.20000000E+00  1.20000000E+00  1.20000000E+00  1.20000000E+00
  1.20000000E+00  1.20000000E+00  1.20000000E+00  1.20000000E+00  1.20000000E+00
  1.20000000E+00  1.20000000E+00  1.20000000E+00  1.20000000E+00  1.20000000E+00
  1.20000000E+00  0.00000000E+00
%FLAG SCNB_SCALE_FACTOR                                                         
%FORMAT(5E16.8)                                                                 
  2.00000000E+00  2.00000000E+00  2.00000000E+00  2.00000000E+00  2.00000000E+00
  2.00000000E+00  2.00000000E+00  2.00000000E+00  2.00000000E+00  2.00000000E+00
  2.00000000E+00  2.00000000E+00  2.00000000E+00  2.00000000E+00  2.00000000E+00
  2.00000000E+00  0.00000000E+00
%FLAG SOLTY                                                                     
%FORMAT(5E16.8)                                                                 
  0.00000000E+00  0.00000000E+00  0.00000000E+00  0.00000000E+00  0.00000000E+00
  0.00000000E+00  0.00000000E+00  0.00000000E+00  0.00000000E+00  0.00000000E+00
  0.00000000E+00  0.00000000E+00
%FLAG LENNARD_JONES_ACOEF                                                       
%FORMAT(5E16.8)                                                                 
  1.02073671E+06  9.96191545E+05  9.62429652E+05  8.43969952E+05  8.20152428E+05
  6.96551276E+05  9.31115275E+05  9.08092643E+05  7.69642101E+05  8.49322032E+05
  5.42502534E+05  5.22690526E+05  4.46121722E+05  4.94433451E+05  2.83662575E+05
  6.97998263E+04  6.42436358E+04  5.63013422E+04  6.34160397E+04  3.44374471E+04
  3.39005767E+03  7.75673747E+04  7.19580450E+04  6.27751680E+04  7.05112106E+04
  3.86549715E+04  3.94664935E+03  4.56536476E+03  9.27554496E+04  8.65595848E+04
  7.52549148E+04  8.43518904E+04  4.65732396E+04  4.88692384E+03  5.62610481E+03
  6.90855956E+03
%FLAG LENNARD_JONES_BCOEF                                                       
%FORMAT(5E16.8)                                                                 
  6.63431737E+02  7.68900328E+02  8.86629877E+02  5.90251928E+02  6.82622272E+02
  5.24668528E+02  6.12468585E+02  7.09588248E+02  5.44830041E+02  5.65406768E+02
  4.38146883E+02  5.04545572E+02  3.88758656E+02  4.04310927E+02  2.87011518E+02
  1.14981426E+02  1.29412081E+02  1.01040256E+02  1.05935811E+02  7.31636661E+01
  1.67944276E+01  1.13692208E+02  1.28466555E+02  1.00073628E+02  1.04776275E+02
  7.27065100E+01  1.69967767E+01  1.71467049E+01  1.24325688E+02  1.40899023E+02
  1.09570372E+02  1.14599119E+02  7.98066064E+01  1.89134207E+01  1.90347353E+01
  2.10929191E+01
%FLAG BONDS_INC_HYDROGEN                                                        
%FORMAT(10I8)                                                                   
       0      81       2       0      84       2       0      87       2       6
      90       6      12      93      10      21      96      13      24      99
      13      39     102      10      48     105       6      57     108      10
      60     111       2      60     114       2      66     117      13      69
     120      13      72     123      13      75     126      13      78     129
      13
%FLAG BONDS_WITHOUT_HYDROGEN                                                    
%FORMAT(10I8)                                                                   
       0       3       1       3       6       3       3      15       4       6
       9       5       9      12       7       9      18       8      12      15
       9      18      21      11      18      33      12      21      24      11
      24      27      11      27      30      11      27      42      14      30
      33      12      30      36      15      36      39       5      36      45
      16      39      42      17      45      48      16      45      57       5
      48      51      18      51      54      19      54      57      20      54
      60       1      60      63      21      63      66      11      63      78
      11      66      69      11      69      72      11      72      75      11
      75      78      11
%FLAG ANGLES_INC_HYDROGEN                                                       
%FORMAT(10I8)                                                                   
       3       0      81       3       3       0      84       3       3       0
      87       3       3       6      90       5       9       6      90      10
       9      12      93      12      15      12      93      16      18      21
      96      18      21      24      99      18      24      21      96      18
      27      24      99      18      36      39     102      28      42      39
     102      31      45      48     105      33      45      57     108      28
      51      48     105      36      54      57     108      39      54      60
     111       3      54      60     114       3      63      60     111      43
      63      60     114      43      63      66     117      18      63      78
     129      18      66      69     120      18      69      66     117      18
      69      72     123      18      72      69     120      18      72      75
     126      18      75      72     123      18      75      78     129      18
      78      75     126      18      81       0      84      44      81       0
      87      44      84       0      87      44     111      60     114      44
%FLAG ANGLES_WITHOUT_HYDROGEN                                                   
%FORMAT(10I8)                                                                   
       0       3       6       1       0       3      15       2       3       6
       9       4       3      15      12       6       6       3      15       7
       6       9      12       8       6       9      18       9       9      12
      15      11       9      18      21      13       9      18      33      14
      12       9      18      15      18      21      24      17      18      33
      30      19      21      18      33      20      21      24      27      17
      24      27      30      17      24      27      42      21      27      30
      33      20      27      30      36      22      27      42      39      23
      30      27      42      21      30      36      39      24      30      36
      45      25      33      30      36      26      36      39      42      27
      36      45      48      29      36      45      57      30      39      36
      45      30      45      48      51      32      45      57      54      34
      48      45      57      30      48      51      54      35      51      54
      57      37      51      54      60      38      54      60      63      40
      57      54      60      41      60      63      66      42      60      63
      78      42      63      66      69      17      63      78      75      17
      66      63      78      17      66      69      72      17      69      72
      75      17      72      75      78      17
%FLAG DIHEDRALS_INC_HYDROGEN                                                    
%FORMAT(10I8)                                                                   
       0       3       6      90       1       3      15      12      93       4
      81       0       3       6       5      84       0       3       6       5
      87       0       3       6       5       6       9      12      93       3
       9      18      21      96       8      12       9       6      90       3
      81       0       3      15       5      84       0       3      15       5
      87       0       3      15       5      15       3       6      90       1
      18       9       6      90       3      18       9      12      93       3
      18      21      24      99       8      27      24      21      96       8
      27      42      39     102      15      30      27      24      99       8
      30      36      39     102       3      33      18      21      96       8
      36      45      48     105       3      36      45      57     108       3
      42      27      24      99       8      45      36      39     102       3
      48      45      57     108       3      51      54      57     108       1
      51      54      60     111       5      51      54      60     114       5
      54      51      48     105       4      57      54      60     111       5
      57      54      60     114       5      57      45      48     105       3
      60      54      57     108       1      60      63      66     117       8
      60      63      78     129       8      63      66      69     120       8
      63      78      75     126       8      66      63      60     111       5
      66      63      60     114       5      66      63      78     129       8
      66      69      72     123       8      69      72      75     126       8
      72      69      66     117       8      72      75      78     129       8
      75      72      69     120       8      78      75      72     123       8
      78      63      60     111       5      78      63      60     114       5
      78      63      66     117       8      96      21      24      99       8
     117      66      69     120       8     120      69      72     123       8
     123      72      75     126       8     126      75      78     129       8
       9      90      -6      -3      17       9      93     -12     -15      17
      18      24     -21     -96      17      21      27     -24     -99      17
      36     102     -39     -42      17      45     105     -48     -51      17
      45     108     -57     -54      17      63      69     -66    -117      17
      66      72     -69    -120      17      69      75     -72    -123      17
      72      78     -75    -126      17      63      75     -78    -129      17
%FLAG DIHEDRALS_WITHOUT_HYDROGEN                                                
%FORMAT(10I8)                                                                   
       0       3       6       9       1       0       3      15      12       2
       3       6      -9      12       3       3       6       9      18       3
       3      15     -12       9       4       6       3     -15      12       2
       6       9     -12      15       3       6       9      18      21       6
       6       9      18      33       7       9       6      -3      15       1
       9      18      21      24       8       9      18      33      30       2
      12       9      18      21       9      12       9      18      33      10
      12       9     -18      33      11      12       9     -18      33      12
      15      12       9      18       3      18      21      24      27       8
      18      33     -30      27       2      18      33      30      36       2
      21      18      33      30       2      21      24     -27      30       8
      21      24      27      42       8      24      21      18      33       8
      24      27     -30      33       8      24      27      30      36       8
      24      27      42      39      13      27      30     -36      39       9
      27      30      36      45       6      27      42     -39      36      14
      30      27     -42      39      13      30      36     -39      42       3
      30      36      45      48       3      30      36      45      57       3
      33      30      27      42       8      33      30      36      39      10
      33      30     -36      39      11      33      30     -36      39      12
      33      30      36      45       7      36      30     -27      42       8
      36      45      48      51       3      36      45      57      54       3
      39      36      45      48       3      39      36      45      57       3
      42      39      36      45       3      45      48     -51      54       4
      45      57     -54      51       1      45      57      54      60       1
      48      45     -57      54       3      48      51     -54      57       2
      48      51      54      60       2      51      48     -45      57       3
      51      54      60      63       5      54      60      63      66      16
      54      60      63      78      16      57      54      60      63       5
      60      63      66      69       8      60      63      78      75       8
      63      66      69      72       8      63      78     -75      72       8
      66      63      78      75       8      66      69     -72      75       8
      69      66      63      78       8      69      72     -75      78       8
       0       6      -3     -15      17      18       6      -9     -12      17
      21       9     -18     -33      17      24      30     -27     -42      17
      27      36     -30     -33      17      30      45     -36     -39      17
      36      48     -45     -57      17      60      57     -54     -51      17
      66      78     -63     -60      17
%FLAG EXCLUDED_ATOMS_LIST                                                       
%FORMAT(10I8)                                                                   
       2       3       4       5       6      28      29      30      31       3
       4       5       6       7      28      29      30      31      32       4
       5       6       7       8      12      28      29      30      31      32
       5       6       7       8       9      11      12      31      32      33
       6       7       8      12      31      32       7      28      29      30
      31      32       8       9      10      11      12      13      31      32
      33      34       9      10      11      12      15      33      34      10
      11      12      13      14      15      33      34      11      12      13
      14      15      16      33      34      35      12      13      14      15
      16      17      20      34      35      13      14      15      16      33
      14      15      16      17      18      19      20      35      36      37
      15      16      17      20      35      16      34      35      17      18
      19      20      21      35      36      37      18      19      20      21
      36      37      19      20      21      22      36      37      38      39
      20      21      22      23      27      36      37      38      39      21
      22      36      37      38      39      22      23      24      26      27
      37      38      39      40      44      23      24      25      26      27
      38      39      40      41      43      44      24      25      26      27
      38      39      40      41      42      44      25      26      27      40
      41      42      43      26      27      40      41      42      43      44
      27      41      42      43      44      38      39      40      42      43
      44      29      30      30       0       0       0      34       0       0
       0       0      39       0      41      42      43      44       0
%FLAG HBOND_ACOEF                                                               
%FORMAT(5E16.8)                                                                 

%FLAG HBOND_BCOEF                                                               
%FORMAT(5E16.8)                                                                 

%FLAG HBCUT                                                                     
%FORMAT(5E16.8)                                                                 

%FLAG AMBER_ATOM_TYPE                                                           
%FORMAT(20a4)                                                                   
c3  na  cc  cd  cd  nc  ca  ca  ca  ca  ca  nb  cc  cd  os  cc  cc  nd  na  cd  
c3  ca  ca  ca  ca  ca  ca  h1  h1  h1  h4  h4  ha  ha  h4  h4  h4  h1  h1  ha  
ha  ha  ha  ha  
%FLAG TREE_CHAIN_CLASSIFICATION                                                 
%FORMAT(20a4)                                                                   
BLA BLA BLA BLA BLA BLA BLA BLA BLA BLA BLA BLA BLA BLA BLA BLA BLA BLA BLA BLA 
BLA BLA BLA BLA BLA BLA BLA BLA BLA BLA BLA BLA BLA BLA BLA BLA BLA BLA BLA BLA 
BLA BLA BLA BLA 
%FLAG JOIN_ARRAY                                                                
%FORMAT(10I8)                                                                   
       0       0       0       0       0       0       0       0       0       0
       0       0       0       0       0       0       0       0       0       0
       0       0       0       0       0       0       0       0       0       0
       0       0       0       0       0       0       0       0       0       0
       0       0       0       0
%FLAG IROTAT                                                                    
%FORMAT(10I8)                                                                   
       0       0       0       0       0       0       0       0       0       0
       0       0       0       0       0       0       0       0       0       0
       0       0       0       0       0       0       0       0       0       0
       0       0       0       0       0       0       0       0       0       0
       0       0       0       0
%FLAG RADIUS_SET                                                                
%FORMAT(1a80)                                                                   
modified Bondi radii (mbondi)                                                   
%FLAG RADII                                                                     
%FORMAT(5E16.8)                                                                 
  1.70000000E+00  1.55000000E+00  1.70000000E+00  1.70000000E+00  1.70000000E+00
  1.55000000E+00  1.70000000E+00  1.70000000E+00  1.70000000E+00  1.70000000E+00
  1.70000000E+00  1.55000000E+00  1.70000000E+00  1.70000000E+00  1.50000000E+00
  1.70000000E+00  1.70000000E+00  1.55000000E+00  1.55000000E+00  1.70000000E+00
  1.70000000E+00  1.70000000E+00  1.70000000E+00  1.70000000E+00  1.70000000E+00
  1.70000000E+00  1.70000000E+00  1.30000000E+00  1.30000000E+00  1.30000000E+00
  1.30000000E+00  1.30000000E+00  1.30000000E+00  1.30000000E+00  1.30000000E+00
  1.30000000E+00  1.30000000E+00  1.30000000E+00  1.30000000E+00  1.30000000E+00
  1.30000000E+00  1.30000000E+00  1.30000000E+00  1.30000000E+00
%FLAG SCREEN                                                                    
%FORMAT(5E16.8)                                                                 
  7.20000000E-01  7.90000000E-01  7.20000000E-01  7.20000000E-01  7.20000000E-01
  7.90000000E-01  7.20000000E-01  7.20000000E-01  7.20000000E-01  7.20000000E-01
  7.20000000E-01  7.90000000E-01  7.20000000E-01  7.20000000E-01  8.50000000E-01
  7.20000000E-01  7.20000000E-01  7.90000000E-01  7.90000000E-01  7.20000000E-01
  7.20000000E-01  7.20000000E-01  7.20000000E-01  7.20000000E-01  7.20000000E-01
  7.20000000E-01  7.20000000E-01  8.50000000E-01  8.50000000E-01  8.50000000E-01
  8.50000000E-01  8.50000000E-01  8.50000000E-01  8.50000000E-01  8.50000000E-01
  8.50000000E-01  8.50000000E-01  8.50000000E-01  8.50000000E-01  8.50000000E-01
  8.50000000E-01  8.50000000E-01  8.50000000E-01  8.50000000E-01
%FLAG IPOL                                                                      
%FORMAT(1I8)                                                                    
       0
