; H3E_GMX.itp created by acpype (v: 2023.10.27) on Sun Aug 23 12:50:58 2026

[ atomtypes ]
;name   bond_type     mass     charge   ptype   sigma         epsilon       Amb
 c3       c3          0.00000  0.00000   A     3.39771e-01   4.51035e-01 ; 1.91  0.1078
 na       na          0.00000  0.00000   A     3.20581e-01   8.54373e-01 ; 1.80  0.2042
 cc       cc          0.00000  0.00000   A     3.31521e-01   4.13379e-01 ; 1.86  0.0988
 cd       cd          0.00000  0.00000   A     3.31521e-01   4.13379e-01 ; 1.86  0.0988
 nc       nc          0.00000  0.00000   A     3.38417e-01   3.93714e-01 ; 1.90  0.0941
 ca       ca          0.00000  0.00000   A     3.31521e-01   4.13379e-01 ; 1.86  0.0988
 nb       nb          0.00000  0.00000   A     3.38417e-01   3.93714e-01 ; 1.90  0.0941
 os       os          0.00000  0.00000   A     3.15610e-01   3.03758e-01 ; 1.77  0.0726
 nd       nd          0.00000  0.00000   A     3.38417e-01   3.93714e-01 ; 1.90  0.0941
 h1       h1          0.00000  0.00000   A     2.42200e-01   8.70272e-02 ; 1.36  0.0208
 h4       h4          0.00000  0.00000   A     2.53639e-01   6.73624e-02 ; 1.42  0.0161
 ha       ha          0.00000  0.00000   A     2.62548e-01   6.73624e-02 ; 1.47  0.0161

[ moleculetype ]
;name            nrexcl
 H3E              3

[ atoms ]
;   nr  type  resi  res  atom  cgnr     charge      mass       ; qtot   bond_type
     1   c3     1   UNL     C    1     0.022551     12.01000 ; qtot 0.023
     2   na     1   UNL     N    2    -0.235229     14.01000 ; qtot -0.213
     3   cc     1   UNL    C1    3     0.025110     12.01000 ; qtot -0.188
     4   cd     1   UNL    C2    4     0.035759     12.01000 ; qtot -0.152
     5   cd     1   UNL    C3    5     0.055956     12.01000 ; qtot -0.096
     6   nc     1   UNL    N1    6    -0.189682     14.01000 ; qtot -0.286
     7   ca     1   UNL    C4    7     0.074057     12.01000 ; qtot -0.211
     8   ca     1   UNL    C5    8    -0.032976     12.01000 ; qtot -0.244
     9   ca     1   UNL    C6    9    -0.026842     12.01000 ; qtot -0.271
    10   ca     1   UNL    C7   10     0.107646     12.01000 ; qtot -0.164
    11   ca     1   UNL    C8   11     0.104386     12.01000 ; qtot -0.059
    12   nb     1   UNL    N2   12    -0.244800     14.01000 ; qtot -0.304
    13   cc     1   UNL    C9   13     0.036465     12.01000 ; qtot -0.268
    14   cd     1   UNL   C10   14     0.056180     12.01000 ; qtot -0.211
    15   os     1   UNL     O   15    -0.315144     16.00000 ; qtot -0.527
    16   cc     1   UNL   C11   16     0.021593     12.01000 ; qtot -0.505
    17   cc     1   UNL   C12   17     0.054564     12.01000 ; qtot -0.450
    18   nd     1   UNL    N3   18    -0.189147     14.01000 ; qtot -0.640
    19   na     1   UNL    N4   19    -0.227791     14.01000 ; qtot -0.867
    20   cd     1   UNL   C13   20     0.024417     12.01000 ; qtot -0.843
    21   c3     1   UNL   C14   21     0.058872     12.01000 ; qtot -0.784
    22   ca     1   UNL   C15   22    -0.028629     12.01000 ; qtot -0.813
    23   ca     1   UNL   C16   23    -0.057376     12.01000 ; qtot -0.870
    24   ca     1   UNL   C17   24    -0.061937     12.01000 ; qtot -0.932
    25   ca     1   UNL   C18   25    -0.062251     12.01000 ; qtot -0.994
    26   ca     1   UNL   C19   26    -0.061937     12.01000 ; qtot -1.056
    27   ca     1   UNL   C20   27    -0.057376     12.01000 ; qtot -1.114
    28   h1     1   UNL     H   28     0.045354      1.00800 ; qtot -1.068
    29   h1     1   UNL    H1   29     0.045354      1.00800 ; qtot -1.023
    30   h1     1   UNL    H2   30     0.045354      1.00800 ; qtot -0.977
    31   h4     1   UNL    H3   31     0.081705      1.00800 ; qtot -0.896
    32   h4     1   UNL    H4   32     0.086494      1.00800 ; qtot -0.809
    33   ha     1   UNL    H5   33     0.064679      1.00800 ; qtot -0.745
    34   ha     1   UNL    H6   34     0.065226      1.00800 ; qtot -0.679
    35   h4     1   UNL    H7   35     0.090933      1.00800 ; qtot -0.588
    36   h4     1   UNL    H8   36     0.086437      1.00800 ; qtot -0.502
    37   h4     1   UNL    H9   37     0.081676      1.00800 ; qtot -0.420
    38   h1     1   UNL   H10   38     0.054127      1.00800 ; qtot -0.366
    39   h1     1   UNL   H11   39     0.054127      1.00800 ; qtot -0.312
    40   ha     1   UNL   H12   40     0.062627      1.00800 ; qtot -0.249
    41   ha     1   UNL   H13   41     0.062284      1.00800 ; qtot -0.187
    42   ha     1   UNL   H14   42     0.062273      1.00800 ; qtot -0.125
    43   ha     1   UNL   H15   43     0.062284      1.00800 ; qtot -0.063
    44   ha     1   UNL   H16   44     0.062627      1.00800 ; qtot 0.000

[ bonds ]
;   ai     aj funct   r             k
     1      2   1    1.4639e-01    2.1321e+05 ;      C - N     
     1     28   1    1.0969e-01    2.8804e+05 ;      C - H     
     1     29   1    1.0969e-01    2.8804e+05 ;      C - H1    
     1     30   1    1.0969e-01    2.8804e+05 ;      C - H2    
     2      3   1    1.3803e-01    2.8075e+05 ;      N - C1    
     2      6   1    1.3570e-01    2.4302e+05 ;      N - N1    
     3      4   1    1.3730e-01    3.2321e+05 ;     C1 - C2    
     3     31   1    1.0809e-01    3.0854e+05 ;     C1 - H3    
     4      5   1    1.4279e-01    2.6902e+05 ;     C2 - C3    
     4      7   1    1.4610e-01    2.4166e+05 ;     C2 - C4    
     5      6   1    1.3171e-01    3.4961e+05 ;     C3 - N1    
     5     32   1    1.0818e-01    3.0735e+05 ;     C3 - H4    
     7      8   1    1.3986e-01    2.9644e+05 ;     C4 - C5    
     7     12   1    1.3392e-01    3.2341e+05 ;     C4 - N2    
     8      9   1    1.3986e-01    2.9644e+05 ;     C5 - C6    
     8     33   1    1.0860e-01    3.0183e+05 ;     C5 - H5    
     9     10   1    1.3986e-01    2.9644e+05 ;     C6 - C7    
     9     34   1    1.0860e-01    3.0183e+05 ;     C6 - H6    
    10     11   1    1.3986e-01    2.9644e+05 ;     C7 - C8    
    10     15   1    1.3688e-01    2.8731e+05 ;     C7 - O     
    11     12   1    1.3392e-01    3.2341e+05 ;     C8 - N2    
    11     13   1    1.4528e-01    2.4811e+05 ;     C8 - C9    
    13     14   1    1.3730e-01    3.2321e+05 ;     C9 - C10   
    13     16   1    1.4274e-01    2.6947e+05 ;     C9 - C11   
    14     15   1    1.3608e-01    2.9530e+05 ;    C10 - O     
    14     35   1    1.0818e-01    3.0735e+05 ;    C10 - H7    
    16     17   1    1.4274e-01    2.6947e+05 ;    C11 - C12   
    16     20   1    1.3730e-01    3.2321e+05 ;    C11 - C13   
    17     18   1    1.3158e-01    3.5122e+05 ;    C12 - N3    
    17     36   1    1.0809e-01    3.0854e+05 ;    C12 - H8    
    18     19   1    1.3570e-01    2.4302e+05 ;     N3 - N4    
    19     20   1    1.3830e-01    2.7819e+05 ;     N4 - C13   
    19     21   1    1.4639e-01    2.1321e+05 ;     N4 - C14   
    20     37   1    1.0818e-01    3.0735e+05 ;    C13 - H9    
    21     22   1    1.5147e-01    2.0410e+05 ;    C14 - C15   
    21     38   1    1.0969e-01    2.8804e+05 ;    C14 - H10   
    21     39   1    1.0969e-01    2.8804e+05 ;    C14 - H11   
    22     23   1    1.3986e-01    2.9644e+05 ;    C15 - C16   
    22     27   1    1.3986e-01    2.9644e+05 ;    C15 - C20   
    23     24   1    1.3986e-01    2.9644e+05 ;    C16 - C17   
    23     40   1    1.0860e-01    3.0183e+05 ;    C16 - H12   
    24     25   1    1.3986e-01    2.9644e+05 ;    C17 - C18   
    24     41   1    1.0860e-01    3.0183e+05 ;    C17 - H13   
    25     26   1    1.3986e-01    2.9644e+05 ;    C18 - C19   
    25     42   1    1.0860e-01    3.0183e+05 ;    C18 - H14   
    26     27   1    1.3986e-01    2.9644e+05 ;    C19 - C20   
    26     43   1    1.0860e-01    3.0183e+05 ;    C19 - H15   
    27     44   1    1.0860e-01    3.0183e+05 ;    C20 - H16   

[ pairs ]
;   ai     aj    funct
     1      4      1 ;      C - C2    
     1      5      1 ;      C - C3    
     1     31      1 ;      C - H3    
     2      7      1 ;      N - C4    
     2     32      1 ;      N - H4    
     3      8      1 ;     C1 - C5    
     3     12      1 ;     C1 - N2    
     3     32      1 ;     C1 - H4    
     4      9      1 ;     C2 - C6    
     4     11      1 ;     C2 - C8    
     4     33      1 ;     C2 - H5    
     5      8      1 ;     C3 - C5    
     5     12      1 ;     C3 - N2    
     5     31      1 ;     C3 - H3    
     6      7      1 ;     N1 - C4    
     6     31      1 ;     N1 - H3    
     7     10      1 ;     C4 - C7    
     7     13      1 ;     C4 - C9    
     7     31      1 ;     C4 - H3    
     7     32      1 ;     C4 - H4    
     7     34      1 ;     C4 - H6    
     8     11      1 ;     C5 - C8    
     8     15      1 ;     C5 - O     
     9     12      1 ;     C6 - N2    
     9     13      1 ;     C6 - C9    
     9     14      1 ;     C6 - C10   
    10     16      1 ;     C7 - C11   
    10     33      1 ;     C7 - H5    
    10     35      1 ;     C7 - H7    
    11     17      1 ;     C8 - C12   
    11     20      1 ;     C8 - C13   
    11     34      1 ;     C8 - H6    
    11     35      1 ;     C8 - H7    
    12     14      1 ;     N2 - C10   
    12     15      1 ;     N2 - O     
    12     16      1 ;     N2 - C11   
    12     33      1 ;     N2 - H5    
    13     18      1 ;     C9 - N3    
    13     19      1 ;     C9 - N4    
    13     36      1 ;     C9 - H8    
    13     37      1 ;     C9 - H9    
    14     17      1 ;    C10 - C12   
    14     20      1 ;    C10 - C13   
    15     16      1 ;      O - C11   
    15     34      1 ;      O - H6    
    16     21      1 ;    C11 - C14   
    16     35      1 ;    C11 - H7    
    17     21      1 ;    C12 - C14   
    17     37      1 ;    C12 - H9    
    18     22      1 ;     N3 - C15   
    18     37      1 ;     N3 - H9    
    18     38      1 ;     N3 - H10   
    18     39      1 ;     N3 - H11   
    19     23      1 ;     N4 - C16   
    19     27      1 ;     N4 - C20   
    19     36      1 ;     N4 - H8    
    20     22      1 ;    C13 - C15   
    20     36      1 ;    C13 - H8    
    20     38      1 ;    C13 - H10   
    20     39      1 ;    C13 - H11   
    21     24      1 ;    C14 - C17   
    21     26      1 ;    C14 - C19   
    21     37      1 ;    C14 - H9    
    21     40      1 ;    C14 - H12   
    21     44      1 ;    C14 - H16   
    22     25      1 ;    C15 - C18   
    22     41      1 ;    C15 - H13   
    22     43      1 ;    C15 - H15   
    23     26      1 ;    C16 - C19   
    23     38      1 ;    C16 - H10   
    23     39      1 ;    C16 - H11   
    23     42      1 ;    C16 - H14   
    23     44      1 ;    C16 - H16   
    24     27      1 ;    C17 - C20   
    24     43      1 ;    C17 - H15   
    25     40      1 ;    C18 - H12   
    25     44      1 ;    C18 - H16   
    26     41      1 ;    C19 - H13   
    27     38      1 ;    C20 - H10   
    27     39      1 ;    C20 - H11   
    27     40      1 ;    C20 - H12   
    27     42      1 ;    C20 - H14   
    28      3      1 ;      H - C1    
    28      6      1 ;      H - N1    
    29      3      1 ;     H1 - C1    
    29      6      1 ;     H1 - N1    
    30      3      1 ;     H2 - C1    
    30      6      1 ;     H2 - N1    
    33     34      1 ;     H5 - H6    
    40     41      1 ;    H12 - H13   
    41     42      1 ;    H13 - H14   
    42     43      1 ;    H14 - H15   
    43     44      1 ;    H15 - H16   

[ angles ]
;   ai     aj     ak    funct   theta         cth
     1      2      3      1    1.2665e+02    6.2936e+02 ;      C - N      - C1    
     1      2      6      1    1.2019e+02    6.9069e+02 ;      C - N      - N1    
     2      1     28      1    1.0876e+02    4.0250e+02 ;      N - C      - H     
     2      1     29      1    1.0876e+02    4.0250e+02 ;      N - C      - H1    
     2      1     30      1    1.0876e+02    4.0250e+02 ;      N - C      - H2    
     2      3      4      1    1.0675e+02    6.0927e+02 ;      N - C1     - C2    
     2      3     31      1    1.2101e+02    4.0158e+02 ;      N - C1     - H3    
     2      6      5      1    1.0383e+02    7.8576e+02 ;      N - N1     - C3    
     3      2      6      1    1.1457e+02    7.3103e+02 ;     C1 - N      - N1    
     3      4      5      1    1.1621e+02    5.4032e+02 ;     C1 - C2     - C3    
     3      4      7      1    1.2429e+02    5.1580e+02 ;     C1 - C2     - C4    
     4      3     31      1    1.2911e+02    3.6777e+02 ;     C2 - C1     - H3    
     4      5      6      1    1.2070e+02    5.7287e+02 ;     C2 - C3     - N1    
     4      5     32      1    1.2675e+02    3.5949e+02 ;     C2 - C3     - H4    
     4      7      8      1    1.2083e+02    5.1898e+02 ;     C2 - C4     - C5    
     4      7     12      1    1.1734e+02    5.6928e+02 ;     C2 - C4     - N2    
     5      4      7      1    1.2486e+02    5.0568e+02 ;     C3 - C2     - C4    
     6      5     32      1    1.1814e+02    4.2133e+02 ;     N1 - C3     - H4    
     7      8      9      1    1.2002e+02    5.3279e+02 ;     C4 - C5     - C6    
     7      8     33      1    1.1988e+02    3.7572e+02 ;     C4 - C5     - H5    
     7     12     11      1    1.1724e+02    6.9580e+02 ;     C4 - N2     - C8    
     8      7     12      1    1.2294e+02    5.7045e+02 ;     C5 - C4     - N2    
     8      9     10      1    1.2002e+02    5.3279e+02 ;     C5 - C6     - C7    
     8      9     34      1    1.1988e+02    3.7572e+02 ;     C5 - C6     - H6    
     9      8     33      1    1.1988e+02    3.7572e+02 ;     C6 - C5     - H5    
     9     10     11      1    1.2002e+02    5.3279e+02 ;     C6 - C7     - C8    
     9     10     15      1    1.1911e+02    6.6107e+02 ;     C6 - C7     - O     
    10      9     34      1    1.1988e+02    3.7572e+02 ;     C7 - C6     - H6    
    10     11     12      1    1.2294e+02    5.7045e+02 ;     C7 - C8     - N2    
    10     11     13      1    1.2091e+02    5.2041e+02 ;     C7 - C8     - C9    
    10     15     14      1    1.1986e+02    7.5253e+02 ;     C7 - O      - C10   
    11     10     15      1    1.1911e+02    6.6107e+02 ;     C8 - C7     - O     
    11     13     14      1    1.1603e+02    5.3555e+02 ;     C8 - C9     - C10   
    11     13     16      1    1.2473e+02    5.0752e+02 ;     C8 - C9     - C11   
    12     11     13      1    1.1868e+02    5.6794e+02 ;     N2 - C8     - C9    
    13     14     15      1    1.1671e+02    6.7613e+02 ;     C9 - C10    - O     
    13     14     35      1    1.2764e+02    3.6987e+02 ;     C9 - C10    - H7    
    13     16     17      1    1.2086e+02    5.2024e+02 ;     C9 - C11    - C12   
    13     16     20      1    1.1919e+02    5.3363e+02 ;     C9 - C11    - C13   
    14     13     16      1    1.1919e+02    5.3363e+02 ;    C10 - C9     - C11   
    15     14     35      1    1.1507e+02    4.7982e+02 ;      O - C10    - H7    
    16     17     18      1    1.2605e+02    5.6091e+02 ;    C11 - C12    - N3    
    16     17     36      1    1.2688e+02    3.5941e+02 ;    C11 - C12    - H8    
    16     20     19      1    1.0899e+02    6.0241e+02 ;    C11 - C13    - N4    
    16     20     37      1    1.2764e+02    3.6987e+02 ;    C11 - C13    - H9    
    17     16     20      1    1.1919e+02    5.3363e+02 ;    C12 - C11    - C13   
    17     18     19      1    1.0384e+02    7.8609e+02 ;    C12 - N3     - N4    
    18     17     36      1    1.1836e+02    4.2133e+02 ;     N3 - C12    - H8    
    18     19     20      1    1.1221e+02    7.3789e+02 ;     N3 - N4     - C13   
    18     19     21      1    1.1987e+02    6.9162e+02 ;     N3 - N4     - C14   
    19     20     37      1    1.2017e+02    4.0233e+02 ;     N4 - C13    - H9    
    19     21     22      1    1.1310e+02    5.4685e+02 ;     N4 - C14    - C15   
    19     21     38      1    1.0876e+02    4.0250e+02 ;     N4 - C14    - H10   
    19     21     39      1    1.0876e+02    4.0250e+02 ;     N4 - C14    - H11   
    20     19     21      1    1.2550e+02    6.3170e+02 ;    C13 - N4     - C14   
    21     22     23      1    1.2083e+02    5.0827e+02 ;    C14 - C15    - C16   
    21     22     27      1    1.2083e+02    5.0827e+02 ;    C14 - C15    - C20   
    22     21     38      1    1.0960e+02    3.6660e+02 ;    C15 - C14    - H10   
    22     21     39      1    1.0960e+02    3.6660e+02 ;    C15 - C14    - H11   
    22     23     24      1    1.2002e+02    5.3279e+02 ;    C15 - C16    - C17   
    22     23     40      1    1.1988e+02    3.7572e+02 ;    C15 - C16    - H12   
    22     27     26      1    1.2002e+02    5.3279e+02 ;    C15 - C20    - C19   
    22     27     44      1    1.1988e+02    3.7572e+02 ;    C15 - C20    - H16   
    23     22     27      1    1.2002e+02    5.3279e+02 ;    C16 - C15    - C20   
    23     24     25      1    1.2002e+02    5.3279e+02 ;    C16 - C17    - C18   
    23     24     41      1    1.1988e+02    3.7572e+02 ;    C16 - C17    - H13   
    24     23     40      1    1.1988e+02    3.7572e+02 ;    C17 - C16    - H12   
    24     25     26      1    1.2002e+02    5.3279e+02 ;    C17 - C18    - C19   
    24     25     42      1    1.1988e+02    3.7572e+02 ;    C17 - C18    - H14   
    25     24     41      1    1.1988e+02    3.7572e+02 ;    C18 - C17    - H13   
    25     26     27      1    1.2002e+02    5.3279e+02 ;    C18 - C19    - C20   
    25     26     43      1    1.1988e+02    3.7572e+02 ;    C18 - C19    - H15   
    26     25     42      1    1.1988e+02    3.7572e+02 ;    C19 - C18    - H14   
    26     27     44      1    1.1988e+02    3.7572e+02 ;    C19 - C20    - H16   
    27     26     43      1    1.1988e+02    3.7572e+02 ;    C20 - C19    - H15   
    28      1     29      1    1.0855e+02    2.9824e+02 ;      H - C      - H1    
    28      1     30      1    1.0855e+02    2.9824e+02 ;      H - C      - H2    
    29      1     30      1    1.0855e+02    2.9824e+02 ;     H1 - C      - H2    
    38     21     39      1    1.0855e+02    2.9824e+02 ;    H10 - C14    - H11   

[ dihedrals ] ; propers
; for gromacs 4.5 or higher, using funct 9
;    i      j      k      l   func   phase     kd      pn
     1      2      3      4      9   180.00   7.11280   2 ;      C-     N-    C1-    C2
     1      2      3     31      9   180.00   7.11280   2 ;      C-     N-    C1-    H3
     1      2      6      5      9   180.00  20.08320   2 ;      C-     N-    N1-    C3
     2      3      4      5      9   180.00  16.73600   2 ;      N-    C1-    C2-    C3
     2      3      4      7      9   180.00  16.73600   2 ;      N-    C1-    C2-    C4
     2      6      5      4      9   180.00  19.87400   2 ;      N-    N1-    C3-    C2
     2      6      5     32      9   180.00  19.87400   2 ;      N-    N1-    C3-    H4
     3      2      6      5      9   180.00  20.08320   2 ;     C1-     N-    N1-    C3
     3      4      5      6      9   180.00  16.73600   2 ;     C1-    C2-    C3-    N1
     3      4      5     32      9   180.00  16.73600   2 ;     C1-    C2-    C3-    H4
     3      4      7      8      9   180.00  15.77368   2 ;     C1-    C2-    C4-    C5
     3      4      7     12      9   180.00   6.15048   1 ;     C1-    C2-    C4-    N2
     4      3      2      6      9   180.00   7.11280   2 ;     C2-    C1-     N-    N1
     4      7      8      9      9   180.00  15.16700   2 ;     C2-    C4-    C5-    C6
     4      7      8     33      9   180.00  15.16700   2 ;     C2-    C4-    C5-    H5
     4      7     12     11      9   180.00  20.08320   2 ;     C2-    C4-    N2-    C8
     5      4      3     31      9   180.00  16.73600   2 ;     C3-    C2-    C1-    H3
     5      4      7      8      9   180.00   2.44764   2 ;     C3-    C2-    C4-    C5
     5      4      7     12      9   180.00   3.13800   3 ;     C3-    C2-    C4-    N2
     5      4      7     12      9   180.00   3.43088   1 ;     C3-    C2-    C4-    N2
     5      4      7     12      9   180.00   4.18400   2 ;     C3-    C2-    C4-    N2
     6      2      3     31      9   180.00   7.11280   2 ;     N1-     N-    C1-    H3
     6      5      4      7      9   180.00  16.73600   2 ;     N1-    C3-    C2-    C4
     7      4      3     31      9   180.00  16.73600   2 ;     C4-    C2-    C1-    H3
     7      4      5     32      9   180.00  16.73600   2 ;     C4-    C2-    C3-    H4
     7      8      9     10      9   180.00  15.16700   2 ;     C4-    C5-    C6-    C7
     7      8      9     34      9   180.00  15.16700   2 ;     C4-    C5-    C6-    H6
     7     12     11     10      9   180.00  20.08320   2 ;     C4-    N2-    C8-    C7
     7     12     11     13      9   180.00  20.08320   2 ;     C4-    N2-    C8-    C9
     8      7     12     11      9   180.00  20.08320   2 ;     C5-    C4-    N2-    C8
     8      9     10     11      9   180.00  15.16700   2 ;     C5-    C6-    C7-    C8
     8      9     10     15      9   180.00  15.16700   2 ;     C5-    C6-    C7-     O
     9      8      7     12      9   180.00  15.16700   2 ;     C6-    C5-    C4-    N2
     9     10     11     12      9   180.00  15.16700   2 ;     C6-    C7-    C8-    N2
     9     10     11     13      9   180.00  15.16700   2 ;     C6-    C7-    C8-    C9
     9     10     15     14      9   180.00   3.76560   2 ;     C6-    C7-     O-   C10
    10      9      8     33      9   180.00  15.16700   2 ;     C7-    C6-    C5-    H5
    10     11     13     14      9   180.00   2.44764   2 ;     C7-    C8-    C9-   C10
    10     11     13     16      9   180.00  15.77368   2 ;     C7-    C8-    C9-   C11
    10     15     14     13      9   180.00   2.71960   1 ;     C7-     O-   C10-    C9
    10     15     14     35      9   180.00   4.39320   2 ;     C7-     O-   C10-    H7
    11     10      9     34      9   180.00  15.16700   2 ;     C8-    C7-    C6-    H6
    11     10     15     14      9   180.00   3.76560   2 ;     C8-    C7-     O-   C10
    11     13     14     15      9   180.00  16.73600   2 ;     C8-    C9-   C10-     O
    11     13     14     35      9   180.00  16.73600   2 ;     C8-    C9-   C10-    H7
    11     13     16     17      9   180.00  16.73600   2 ;     C8-    C9-   C11-   C12
    11     13     16     20      9   180.00  16.73600   2 ;     C8-    C9-   C11-   C13
    12      7      8     33      9   180.00  15.16700   2 ;     N2-    C4-    C5-    H5
    12     11     10     15      9   180.00  15.16700   2 ;     N2-    C8-    C7-     O
    12     11     13     14      9   180.00   3.13800   3 ;     N2-    C8-    C9-   C10
    12     11     13     14      9   180.00   3.43088   1 ;     N2-    C8-    C9-   C10
    12     11     13     14      9   180.00   4.18400   2 ;     N2-    C8-    C9-   C10
    12     11     13     16      9   180.00   6.15048   1 ;     N2-    C8-    C9-   C11
    13     11     10     15      9   180.00  15.16700   2 ;     C9-    C8-    C7-     O
    13     16     17     18      9   180.00  16.73600   2 ;     C9-   C11-   C12-    N3
    13     16     17     36      9   180.00  16.73600   2 ;     C9-   C11-   C12-    H8
    13     16     20     19      9   180.00  16.73600   2 ;     C9-   C11-   C13-    N4
    13     16     20     37      9   180.00  16.73600   2 ;     C9-   C11-   C13-    H9
    14     13     16     17      9   180.00  16.73600   2 ;    C10-    C9-   C11-   C12
    14     13     16     20      9   180.00  16.73600   2 ;    C10-    C9-   C11-   C13
    15     10      9     34      9   180.00  15.16700   2 ;      O-    C7-    C6-    H6
    15     14     13     16      9   180.00  16.73600   2 ;      O-   C10-    C9-   C11
    16     13     14     35      9   180.00  16.73600   2 ;    C11-    C9-   C10-    H7
    16     17     18     19      9   180.00  19.87400   2 ;    C11-   C12-    N3-    N4
    16     20     19     18      9   180.00   7.11280   2 ;    C11-   C13-    N4-    N3
    16     20     19     21      9   180.00   7.11280   2 ;    C11-   C13-    N4-   C14
    17     16     20     19      9   180.00  16.73600   2 ;    C12-   C11-   C13-    N4
    17     16     20     37      9   180.00  16.73600   2 ;    C12-   C11-   C13-    H9
    17     18     19     20      9   180.00  20.08320   2 ;    C12-    N3-    N4-   C13
    17     18     19     21      9   180.00  20.08320   2 ;    C12-    N3-    N4-   C14
    18     17     16     20      9   180.00  16.73600   2 ;     N3-   C12-   C11-   C13
    18     19     20     37      9   180.00   7.11280   2 ;     N3-    N4-   C13-    H9
    18     19     21     22      9     0.00   0.00000   0 ;     N3-    N4-   C14-   C15
    18     19     21     38      9     0.00   0.00000   0 ;     N3-    N4-   C14-   H10
    18     19     21     39      9     0.00   0.00000   0 ;     N3-    N4-   C14-   H11
    19     18     17     36      9   180.00  19.87400   2 ;     N4-    N3-   C12-    H8
    19     21     22     23      9   180.00   1.23428   2 ;     N4-   C14-   C15-   C16
    19     21     22     27      9   180.00   1.23428   2 ;     N4-   C14-   C15-   C20
    20     16     17     36      9   180.00  16.73600   2 ;    C13-   C11-   C12-    H8
    20     19     21     22      9     0.00   0.00000   0 ;    C13-    N4-   C14-   C15
    20     19     21     38      9     0.00   0.00000   0 ;    C13-    N4-   C14-   H10
    20     19     21     39      9     0.00   0.00000   0 ;    C13-    N4-   C14-   H11
    21     19     20     37      9   180.00   7.11280   2 ;    C14-    N4-   C13-    H9
    21     22     23     24      9   180.00  15.16700   2 ;    C14-   C15-   C16-   C17
    21     22     23     40      9   180.00  15.16700   2 ;    C14-   C15-   C16-   H12
    21     22     27     26      9   180.00  15.16700   2 ;    C14-   C15-   C20-   C19
    21     22     27     44      9   180.00  15.16700   2 ;    C14-   C15-   C20-   H16
    22     23     24     25      9   180.00  15.16700   2 ;    C15-   C16-   C17-   C18
    22     23     24     41      9   180.00  15.16700   2 ;    C15-   C16-   C17-   H13
    22     27     26     25      9   180.00  15.16700   2 ;    C15-   C20-   C19-   C18
    22     27     26     43      9   180.00  15.16700   2 ;    C15-   C20-   C19-   H15
    23     22     21     38      9     0.00   0.00000   0 ;    C16-   C15-   C14-   H10
    23     22     21     39      9     0.00   0.00000   0 ;    C16-   C15-   C14-   H11
    23     22     27     26      9   180.00  15.16700   2 ;    C16-   C15-   C20-   C19
    23     22     27     44      9   180.00  15.16700   2 ;    C16-   C15-   C20-   H16
    23     24     25     26      9   180.00  15.16700   2 ;    C16-   C17-   C18-   C19
    23     24     25     42      9   180.00  15.16700   2 ;    C16-   C17-   C18-   H14
    24     23     22     27      9   180.00  15.16700   2 ;    C17-   C16-   C15-   C20
    24     25     26     27      9   180.00  15.16700   2 ;    C17-   C18-   C19-   C20
    24     25     26     43      9   180.00  15.16700   2 ;    C17-   C18-   C19-   H15
    25     24     23     40      9   180.00  15.16700   2 ;    C18-   C17-   C16-   H12
    25     26     27     44      9   180.00  15.16700   2 ;    C18-   C19-   C20-   H16
    26     25     24     41      9   180.00  15.16700   2 ;    C19-   C18-   C17-   H13
    27     22     21     38      9     0.00   0.00000   0 ;    C20-   C15-   C14-   H10
    27     22     21     39      9     0.00   0.00000   0 ;    C20-   C15-   C14-   H11
    27     22     23     40      9   180.00  15.16700   2 ;    C20-   C15-   C16-   H12
    27     26     25     42      9   180.00  15.16700   2 ;    C20-   C19-   C18-   H14
    28      1      2      3      9     0.00   0.00000   0 ;      H-     C-     N-    C1
    28      1      2      6      9     0.00   0.00000   0 ;      H-     C-     N-    N1
    29      1      2      3      9     0.00   0.00000   0 ;     H1-     C-     N-    C1
    29      1      2      6      9     0.00   0.00000   0 ;     H1-     C-     N-    N1
    30      1      2      3      9     0.00   0.00000   0 ;     H2-     C-     N-    C1
    30      1      2      6      9     0.00   0.00000   0 ;     H2-     C-     N-    N1
    33      8      9     34      9   180.00  15.16700   2 ;     H5-    C5-    C6-    H6
    40     23     24     41      9   180.00  15.16700   2 ;    H12-   C16-   C17-   H13
    41     24     25     42      9   180.00  15.16700   2 ;    H13-   C17-   C18-   H14
    42     25     26     43      9   180.00  15.16700   2 ;    H14-   C18-   C19-   H15
    43     26     27     44      9   180.00  15.16700   2 ;    H15-   C19-   C20-   H16

[ dihedrals ] ; impropers
; treated as propers in GROMACS to use correct AMBER analytical function
;    i      j      k      l   func   phase     kd      pn
     1      3      2      6      4   180.00   4.60240   2 ;      C-    C1-     N-    N1
     4     31      3      2      4   180.00   4.60240   2 ;     C2-    H3-    C1-     N
     4     32      5      6      4   180.00   4.60240   2 ;     C2-    H4-    C3-    N1
     7      3      4      5      4   180.00   4.60240   2 ;     C4-    C1-    C2-    C3
     7      9      8     33      4   180.00   4.60240   2 ;     C4-    C6-    C5-    H5
     8      4      7     12      4   180.00   4.60240   2 ;     C5-    C2-    C4-    N2
     8     10      9     34      4   180.00   4.60240   2 ;     C5-    C7-    C6-    H6
     9     11     10     15      4   180.00   4.60240   2 ;     C6-    C8-    C7-     O
    10     13     11     12      4   180.00   4.60240   2 ;     C7-    C9-    C8-    N2
    11     16     13     14      4   180.00   4.60240   2 ;     C8-   C11-    C9-   C10
    13     17     16     20      4   180.00   4.60240   2 ;     C9-   C12-   C11-   C13
    13     35     14     15      4   180.00   4.60240   2 ;     C9-    H7-   C10-     O
    16     36     17     18      4   180.00   4.60240   2 ;    C11-    H8-   C12-    N3
    16     37     20     19      4   180.00   4.60240   2 ;    C11-    H9-   C13-    N4
    21     20     19     18      4   180.00   4.60240   2 ;    C14-   C13-    N4-    N3
    22     24     23     40      4   180.00   4.60240   2 ;    C15-   C17-   C16-   H12
    22     26     27     44      4   180.00   4.60240   2 ;    C15-   C19-   C20-   H16
    23     25     24     41      4   180.00   4.60240   2 ;    C16-   C18-   C17-   H13
    23     27     22     21      4   180.00   4.60240   2 ;    C16-   C20-   C15-   C14
    24     26     25     42      4   180.00   4.60240   2 ;    C17-   C19-   C18-   H14
    25     27     26     43      4   180.00   4.60240   2 ;    C18-   C20-   C19-   H15
