; H3E_GMX.top created by acpype (v: 2023.10.27) on Sun Aug 23 12:50:58 2026

[ defaults ]
; nbfunc        comb-rule       gen-pairs       fudgeLJ fudgeQQ
1               2               yes             0.5     0.8333333333

; Include H3E_GMX.itp topology
#include "H3E_GMX.itp"

; Ligand position restraints
#ifdef POSRES_LIG
#include "posre_H3E.itp"
#endif

[ system ]
 H3E

[ molecules ]
; Compound        nmols
 H3E              1     
