*****
    44
  -5.6880000   3.2110000   0.6110000  -5.4870000   1.8760000   0.1020000
  -4.3250000   1.1660000   0.1000000  -4.6080000  -0.0550000  -0.4850000
  -5.9840000   0.0380000  -0.7960000  -6.5220000   1.2090000  -0.4410000
  -3.6360000  -1.1220000  -0.6850000  -4.0190000  -2.3290000  -1.2830000
  -3.0830000  -3.3480000  -1.4730000  -1.8030000  -3.0570000  -1.0300000
  -1.4720000  -1.8420000  -0.4430000  -2.3780000  -0.8490000  -0.2560000
  -0.0890000  -1.9270000  -0.1310000   0.3200000  -3.1770000  -0.5480000
  -0.7160000  -3.8710000  -1.0960000   0.7270000  -0.9010000   0.4990000
   0.3140000   0.3870000   0.8940000   1.3050000   1.0950000   1.4470000
   2.3630000   0.2570000   1.3890000   2.0580000  -0.9610000   0.8430000
   3.6520000   0.6720000   1.9300000   4.6820000   0.8660000   0.8440000
   4.5270000   1.8840000  -0.1100000   5.4800000   2.0670000  -1.1120000
   6.5990000   1.2380000  -1.1700000   6.7660000   0.2270000  -0.2270000
   5.8140000   0.0410000   0.7770000  -6.0300000   3.8450000  -0.2110000
  -4.7460000   3.5940000   1.0110000  -6.4400000   3.1680000   1.4020000
  -3.4070000   1.5700000   0.5030000  -6.6250000  -0.6950000  -1.2670000
  -5.0410000  -2.4940000  -1.6090000  -3.3320000  -4.2970000  -1.9300000
   1.2660000  -3.6990000  -0.5300000  -0.6640000   0.8440000   0.8070000
   2.8050000  -1.7340000   0.7400000   3.9570000  -0.1020000   2.6440000
   3.5110000   1.6040000   2.4900000   3.6560000   2.5370000  -0.0780000
   5.3480000   2.8560000  -1.8480000   7.3400000   1.3820000  -1.9520000
   7.6400000  -0.4180000  -0.2730000   5.9650000  -0.7540000   1.5040000
