H3E_GMX.gro created by acpype (v: 2023.10.27) on Sun Aug 23 12:50:58 2026
 44
    1  UNL    C    1  -0.569   0.321   0.061
    1  UNL    N    2  -0.549   0.188   0.010
    1  UNL   C1    3  -0.433   0.117   0.010
    1  UNL   C2    4  -0.461  -0.006  -0.049
    1  UNL   C3    5  -0.598   0.004  -0.080
    1  UNL   N1    6  -0.652   0.121  -0.044
    1  UNL   C4    7  -0.364  -0.112  -0.069
    1  UNL   C5    8  -0.402  -0.233  -0.128
    1  UNL   C6    9  -0.308  -0.335  -0.147
    1  UNL   C7   10  -0.180  -0.306  -0.103
    1  UNL   C8   11  -0.147  -0.184  -0.044
    1  UNL   N2   12  -0.238  -0.085  -0.026
    1  UNL   C9   13  -0.009  -0.193  -0.013
    1  UNL  C10   14   0.032  -0.318  -0.055
    1  UNL    O   15  -0.072  -0.387  -0.110
    1  UNL  C11   16   0.073  -0.090   0.050
    1  UNL  C12   17   0.031   0.039   0.089
    1  UNL   N3   18   0.131   0.110   0.145
    1  UNL   N4   19   0.236   0.026   0.139
    1  UNL  C13   20   0.206  -0.096   0.084
    1  UNL  C14   21   0.365   0.067   0.193
    1  UNL  C15   22   0.468   0.087   0.084
    1  UNL  C16   23   0.453   0.188  -0.011
    1  UNL  C17   24   0.548   0.207  -0.111
    1  UNL  C18   25   0.660   0.124  -0.117
    1  UNL  C19   26   0.677   0.023  -0.023
    1  UNL  C20   27   0.581   0.004   0.078
    1  UNL    H   28  -0.603   0.385  -0.021
    1  UNL   H1   29  -0.475   0.359   0.101
    1  UNL   H2   30  -0.644   0.317   0.140
    1  UNL   H3   31  -0.341   0.157   0.050
    1  UNL   H4   32  -0.663  -0.069  -0.127
    1  UNL   H5   33  -0.504  -0.249  -0.161
    1  UNL   H6   34  -0.333  -0.430  -0.193
    1  UNL   H7   35   0.127  -0.370  -0.053
    1  UNL   H8   36  -0.066   0.084   0.081
    1  UNL   H9   37   0.281  -0.173   0.074
    1  UNL  H10   38   0.396  -0.010   0.264
    1  UNL  H11   39   0.351   0.160   0.249
    1  UNL  H12   40   0.366   0.254  -0.008
    1  UNL  H13   41   0.535   0.286  -0.185
    1  UNL  H14   42   0.734   0.138  -0.195
    1  UNL  H15   43   0.764  -0.042  -0.027
    1  UNL  H16   44   0.597  -0.075   0.150
   28.53000    16.28400     9.19200
