; to test
; gmx grompp -f md.mdp -c em.gro -p H3E_GMX.top -o md.tpr
; gmx mdrun -ntmpi 1 -v -deffnm md
; define                   = -DPOSRES_LIG
integrator               = md
nsteps                   = 10000
nstxout                  = 10
cutoff-scheme            = verlet
coulombtype              = PME
constraints              = h-bonds
vdwtype                  = cutoff
vdw-modifier             = force-switch
rlist                    = 1.0
rvdw                     = 1.0
rvdw-switch              = 0.9
rcoulomb                 = 1.1
DispCorr                 = EnerPres
lincs-iter               = 2
fourierspacing           = 0.25
gen-vel                  = yes
; vmd md.gro md.trr
