; to test
; echo 0 | gmx editconf -f ref_GMX.gro -bt octahedron -d 10 -c -princ
; gmx grompp -f em.mdp -c out.gro -p ref_GMX.top -o em.tpr -v
; gmx mdrun -ntmpi 1 -v -deffnm em

; Parameters describing what to do, when to stop and what to save
integrator      = steep     ; Algorithm (steep = steepest descent minimization)
nsteps          = 500       ; Maximum number of (minimization) steps to perform
nstxout         = 10

; Parameters describing how to find the neighbors of each atom and how to calculate the interactions
nstlist         = 1             ; Frequency to update the neighbour list and long range forces
cutoff-scheme   = Verlet
rlist           = 1.2           ; Cut-off for making neighbour list (short range forces)
coulombtype     = PME           ; Treatment of long range electrostatic interactions
rcoulomb        = 1.2           ; long range electrostatic cut-off
vdw-type        = cutoff
vdw-modifier    = force-switch
rvdw-switch     = 1.0
rvdw            = 1.2           ; long range Van der Waals cut-off
pbc             = xyz           ; Periodic Boundary Conditions
DispCorr        = no
; vmd em.gro em.trr
