; ref_GMX.top created by acpype (v: 2023.10.27) on Sun Aug 23 14:33:45 2026

[ defaults ]
; nbfunc        comb-rule       gen-pairs       fudgeLJ fudgeQQ
1               2               yes             0.5     0.8333333333

; Include ref_GMX.itp topology
#include "ref_GMX.itp"

; Ligand position restraints
#ifdef POSRES_LIG
#include "posre_ref.itp"
#endif

[ system ]
 ref

[ molecules ]
; Compound        nmols
 ref              1     
