%VERSION  VERSION_STAMP = V0001.000  DATE = 08/23/26  14:33:45                  
%FLAG TITLE                                                                     
%FORMAT(20a4)                                                                   
*****                                                                           
%FLAG POINTERS                                                                  
%FORMAT(10I8)                                                                   
      44       8      17      31      35      44      66      73       0       0
     229       1      31      44      73      16      29      18      11       0
       0       0       0       0       0       0       0       0      44       0
       0
%FLAG ATOM_NAME                                                                 
%FORMAT(20a4)                                                                   
C   C1  C2  N   C3  C4  N1  C5  C6  C7  C8  N2  C9  C10 C11 N3  C12 N4  C13 C14 
C15 O   C16 C17 C18 C19 C20 H   H1  H2  H3  H4  H5  H6  H7  H8  H9  H10 H11 H12 
H13 H14 H15 H16 
%FLAG CHARGE                                                                    
%FORMAT(5E16.8)                                                                 
  1.34948887E+00 -6.00898565E-01 -4.89122977E-01 -3.45644231E+00  1.96155771E+00
  1.90215301E+00 -3.44669338E+00  6.64476169E-01  1.02372881E+00  3.93474124E-01
  9.94281577E-01 -4.15087594E+00  1.07278325E+00 -5.21686227E-01 -1.04552268E+00
 -4.46081904E+00  4.10931087E-01 -4.28641341E+00  1.01964702E+00  6.51611226E-01
  4.57561953E-01 -5.74259384E+00  4.44933899E-01 -1.04552268E+00 -1.12863460E+00
 -1.13435640E+00 -1.12863460E+00  1.17860014E+00  1.18856774E+00  1.65700841E+00
  1.57508095E+00  9.86318432E-01  9.86318432E-01  1.14120798E+00  8.26454194E-01
  8.26454194E-01  8.26454194E-01  1.57611962E+00  1.48885302E+00  1.48832457E+00
  1.14120798E+00  1.13495773E+00  1.13475729E+00  1.13495773E+00
%FLAG ATOMIC_NUMBER                                                             
%FORMAT(10I8)                                                                   
       6       6       6       7       6       6       7       6       6       6
       6       7       6       6       6       7       6       7       6       6
       6       8       6       6       6       6       6       1       1       1
       1       1       1       1       1       1       1       1       1       1
       1       1       1       1
%FLAG MASS                                                                      
%FORMAT(5E16.8)                                                                 
  1.20100000E+01  1.20100000E+01  1.20100000E+01  1.40100000E+01  1.20100000E+01
  1.20100000E+01  1.40100000E+01  1.20100000E+01  1.20100000E+01  1.20100000E+01
  1.20100000E+01  1.40100000E+01  1.20100000E+01  1.20100000E+01  1.20100000E+01
  1.40100000E+01  1.20100000E+01  1.40100000E+01  1.20100000E+01  1.20100000E+01
  1.20100000E+01  1.60000000E+01  1.20100000E+01  1.20100000E+01  1.20100000E+01
  1.20100000E+01  1.20100000E+01  1.00800000E+00  1.00800000E+00  1.00800000E+00
  1.00800000E+00  1.00800000E+00  1.00800000E+00  1.00800000E+00  1.00800000E+00
  1.00800000E+00  1.00800000E+00  1.00800000E+00  1.00800000E+00  1.00800000E+00
  1.00800000E+00  1.00800000E+00  1.00800000E+00  1.00800000E+00
%FLAG ATOM_TYPE_INDEX                                                           
%FORMAT(10I8)                                                                   
       1       1       1       2       1       1       2       1       1       1
       1       3       4       1       1       2       4       3       1       1
       1       5       1       1       1       1       1       6       6       7
       7       8       8       6       8       8       8       7       7       7
       6       6       6       6
%FLAG NUMBER_EXCLUDED_ATOMS                                                     
%FORMAT(10I8)                                                                   
      15      10       9      10       9      10      11      10       6       9
       5       9      11      12      10       5       8       8       4       4
       5       2       4       9       6       6       4       1       1       1
       1       1       1       1       2       1       1       1       1       1
       1       1       1       1
%FLAG NONBONDED_PARM_INDEX                                                      
%FORMAT(10I8)                                                                   
       1       2       4       7      11      16      22      29       2       3
       5       8      12      17      23      30       4       5       6       9
      13      18      24      31       7       8       9      10      14      19
      25      32      11      12      13      14      15      20      26      33
      16      17      18      19      20      21      27      34      22      23
      24      25      26      27      28      35      29      30      31      32
      33      34      35      36
%FLAG RESIDUE_LABEL                                                             
%FORMAT(20a4)                                                                   
UNL 
%FLAG RESIDUE_POINTER                                                           
%FORMAT(10I8)                                                                   
       1
%FLAG BOND_FORCE_CONSTANT                                                       
%FORMAT(5E16.8)                                                                 
  3.54250000E+02  3.86490000E+02  2.88790000E+02  3.60690000E+02  2.90410000E+02
  4.17790000E+02  3.43340000E+02  3.86240000E+02  3.21490000E+02  3.51190000E+02
  3.68720000E+02  3.67290000E+02  2.54790000E+02  3.35500000E+02  2.43910000E+02
  3.44220000E+02
%FLAG BOND_EQUIL_VALUE                                                          
%FORMAT(5E16.8)                                                                 
  1.39860000E+00  1.33920000E+00  1.46100000E+00  1.08600000E+00  1.35700000E+00
  1.31710000E+00  1.36880000E+00  1.37300000E+00  1.42790000E+00  1.36220000E+00
  1.08090000E+00  1.08180000E+00  1.46390000E+00  1.38030000E+00  1.51470000E+00
  1.09690000E+00
%FLAG ANGLE_FORCE_CONSTANT                                                      
%FORMAT(5E16.8)                                                                 
  6.36700000E+01  4.49000000E+01  8.31500000E+01  6.04300000E+01  6.16400000E+01
  6.81700000E+01  6.20200000E+01  7.90000000E+01  8.25400000E+01  8.73600000E+01
  6.84600000E+01  5.03500000E+01  9.56300000E+01  6.80300000E+01  8.26200000E+01
  4.39500000E+01  6.23700000E+01  6.45700000E+01  4.29600000E+01  7.28100000E+01
  9.39000000E+01  6.53500000E+01  4.81000000E+01  4.79900000E+01  7.52100000E+01
  6.07400000E+01  4.38100000E+01  5.71800000E+01  3.56400000E+01
%FLAG ANGLE_EQUIL_VALUE                                                         
%FORMAT(5E16.8)                                                                 
  2.09474507E+00  2.09230160E+00  2.04622489E+00  2.17921904E+00  2.16927066E+00
  2.14570870E+00  2.10888224E+00  2.07886256E+00  2.09771213E+00  1.99962458E+00
  2.10661331E+00  2.06193286E+00  1.84830447E+00  2.04797022E+00  1.94656655E+00
  2.25339556E+00  2.09457053E+00  2.02824799E+00  2.21220578E+00  1.86313978E+00
  1.81217614E+00  1.97396823E+00  1.89822091E+00  2.11202383E+00  2.21046045E+00
  2.10888224E+00  1.91288168E+00  2.01672882E+00  1.89455572E+00
%FLAG DIHEDRAL_FORCE_CONSTANT                                                   
%FORMAT(5E16.8)                                                                 
  3.62500000E+00  4.80000000E+00  4.00000000E+00  5.85000000E-01  3.77000000E+00
  1.82500000E+00  0.00000000E+00  1.70000000E+00  6.50000000E-01  1.05000000E+00
  1.47000000E+00  8.20000000E-01  1.00000000E+00  7.50000000E-01  4.75000000E+00
  2.95000000E-01  5.61666667E-01  1.10000000E+00
%FLAG DIHEDRAL_PERIODICITY                                                      
%FORMAT(5E16.8)                                                                 
  2.00000000E+00  2.00000000E+00  2.00000000E+00  2.00000000E+00  2.00000000E+00
  2.00000000E+00  2.00000000E+00  2.00000000E+00  1.00000000E+00  2.00000000E+00
  1.00000000E+00  1.00000000E+00  2.00000000E+00  3.00000000E+00  2.00000000E+00
  2.00000000E+00  2.00000000E+00  2.00000000E+00
%FLAG DIHEDRAL_PHASE                                                            
%FORMAT(5E16.8)                                                                 
  3.14159400E+00  3.14159400E+00  3.14159400E+00  3.14159400E+00  3.14159400E+00
  3.14159400E+00  0.00000000E+00  3.14159400E+00  3.14159400E+00  3.14159400E+00
  3.14159400E+00  3.14159400E+00  3.14159400E+00  3.14159400E+00  3.14159400E+00
  3.14159400E+00  0.00000000E+00  3.14159400E+00
%FLAG SCEE_SCALE_FACTOR                                                         
%FORMAT(5E16.8)                                                                 
  1.20000000E+00  1.20000000E+00  1.20000000E+00  1.20000000E+00  1.20000000E+00
  1.20000000E+00  1.20000000E+00  1.20000000E+00  1.20000000E+00  1.20000000E+00
  1.20000000E+00  1.20000000E+00  1.20000000E+00  1.20000000E+00  1.20000000E+00
  1.20000000E+00  1.20000000E+00  0.00000000E+00
%FLAG SCNB_SCALE_FACTOR                                                         
%FORMAT(5E16.8)                                                                 
  2.00000000E+00  2.00000000E+00  2.00000000E+00  2.00000000E+00  2.00000000E+00
  2.00000000E+00  2.00000000E+00  2.00000000E+00  2.00000000E+00  2.00000000E+00
  2.00000000E+00  2.00000000E+00  2.00000000E+00  2.00000000E+00  2.00000000E+00
  2.00000000E+00  2.00000000E+00  0.00000000E+00
%FLAG SOLTY                                                                     
%FORMAT(5E16.8)                                                                 
  0.00000000E+00  0.00000000E+00  0.00000000E+00  0.00000000E+00  0.00000000E+00
  0.00000000E+00  0.00000000E+00  0.00000000E+00  0.00000000E+00  0.00000000E+00
  0.00000000E+00
%FLAG LENNARD_JONES_ACOEF                                                       
%FORMAT(5E16.8)                                                                 
  6.96551276E+05  7.69642101E+05  8.49322032E+05  8.20152428E+05  9.08092643E+05
  9.62429652E+05  8.43969952E+05  9.31115275E+05  9.96191545E+05  1.02073671E+06
  4.46121722E+05  4.94433451E+05  5.22690526E+05  5.42502534E+05  2.83662575E+05
  7.52549148E+04  8.43518904E+04  8.65595848E+04  9.27554496E+04  4.65732396E+04
  6.90855956E+03  6.27751680E+04  7.05112106E+04  7.19580450E+04  7.75673747E+04
  3.86549715E+04  5.62610481E+03  4.56536476E+03  5.63013422E+04  6.34160397E+04
  6.42436358E+04  6.97998263E+04  3.44374471E+04  4.88692384E+03  3.94664935E+03
  3.39005767E+03
%FLAG LENNARD_JONES_BCOEF                                                       
%FORMAT(5E16.8)                                                                 
  5.24668528E+02  5.44830041E+02  5.65406768E+02  6.82622272E+02  7.09588248E+02
  8.86629877E+02  5.90251928E+02  6.12468585E+02  7.68900328E+02  6.63431737E+02
  3.88758656E+02  4.04310927E+02  5.04545572E+02  4.38146883E+02  2.87011518E+02
  1.09570372E+02  1.14599119E+02  1.40899023E+02  1.24325688E+02  7.98066064E+01
  2.10929191E+01  1.00073628E+02  1.04776275E+02  1.28466555E+02  1.13692208E+02
  7.27065100E+01  1.90347353E+01  1.71467049E+01  1.01040256E+02  1.05935811E+02
  1.29412081E+02  1.14981426E+02  7.31636661E+01  1.89134207E+01  1.69967767E+01
  1.67944276E+01
%FLAG BONDS_INC_HYDROGEN                                                        
%FORMAT(10I8)                                                                   
       3      81       4       6      84       4      24      87      11      30
      90      12      36      93      16      36      96      16      42      99
       4      48     102      16      48     105      16      48     108      16
      54     111      12      60     114      11      66     117      11      69
     120       4      72     123       4      75     126       4      78     129
       4
%FLAG BONDS_WITHOUT_HYDROGEN                                                    
%FORMAT(10I8)                                                                   
       0       3       1       0      45       2       0      57       3       3
       6       1       6      12       1       9      51       5       9      54
       6      12      15       1      12      63       7      15      21       3
      15      45       2      18      30       6      18      33       5      21
      24       8      21      27       9      24      63      10      27      30
       9      27      66       8      33      36      13      33      66      14
      36      39      15      39      42       1      39      69       1      42
      78       1      48      51      13      51      60      14      54      57
       9      57      60       8      69      72       1      72      75       1
      75      78       1
%FLAG ANGLES_INC_HYDROGEN                                                       
%FORMAT(10I8)                                                                   
       0       3      81       2       3       6      84       2       6       3
      81       2       9      54     111      12      12       6      84       2
      18      30      90      12      21      24      87      16      27      30
      90      19      27      66     117      16      33      36      93      23
      33      36      96      23      33      66     117      24      39      36
      93      27      39      36      96      27      39      42      99       2
      39      69     120       2      42      78     129       2      51      48
     102      23      51      48     105      23      51      48     108      23
      51      60     114      24      57      54     111      19      57      60
     114      16      63      24      87      28      69      72     123       2
      72      69     120       2      72      75     126       2      75      72
     123       2      75      78     129       2      78      42      99       2
      78      75     126       2      93      36      96      29     102      48
     105      29     102      48     108      29     105      48     108      29
%FLAG ANGLES_WITHOUT_HYDROGEN                                                   
%FORMAT(10I8)                                                                   
       0       3       6       1       0      45      15       3       0      57
      54       4       0      57      60       5       3       0      45       6
       3       0      57       7       3       6      12       1       6      12
      15       1       6      12      63       8       9      51      48       9
       9      51      60      10       9      54      57      11      12      15
      21       7      12      15      45       6      12      63      24      13
      15      12      63       8      15      21      24       5      15      21
      27       4      18      30      27      11      18      33      36       9
      18      33      66      10      21      15      45      14      21      24
      63      15      21      27      30      17      21      27      66      18
      24      21      27      18      27      66      33      20      30      27
      66      18      30      18      33      21      33      36      39      22
      36      33      66      25      36      39      42      26      36      39
      69      26      39      42      78       1      39      69      72       1
      42      39      69       1      42      78      75       1      45       0
      57      14      48      51      60      25      51       9      54      21
      51      60      57      20      54      57      60      18      69      72
      75       1      72      75      78       1
%FLAG DIHEDRALS_INC_HYDROGEN                                                    
%FORMAT(10I8)                                                                   
       0       3       6      84       1       0      57      54     111       3
       0      57      60     114       3       9      51      48     102       7
       9      51      48     105       7       9      51      48     108       7
       9      51      60     114       8      12       6       3      81       1
      12      63      24      87      10      15      12       6      84       1
      15      21      24      87       3      18      33      36      93       7
      18      33      36      96       7      18      33      66     117       8
      21      27      30      90       3      21      27      66     117       3
      27      21      24      87       3      30      27      66     117       3
      33      18      30      90      15      36      33      66     117       8
      36      39      42      99       1      36      39      69     120       1
      39      42      78     129       1      39      69      72     123       1
      42      39      36      93       7      42      39      36      96       7
      42      39      69     120       1      42      78      75     126       1
      45       0       3      81       1      48      51      60     114       8
      51       9      54     111      15      54      57      60     114       3
      57       0       3      81       1      60      57      54     111       3
      60      51      48     102       7      60      51      48     105       7
      60      51      48     108       7      63      12       6      84       1
      66      27      30      90       3      66      33      36      93       7
      66      33      36      96       7      69      39      36      93       7
      69      39      36      96       7      69      39      42      99       1
      69      72      75     126       1      72      75      78     129       1
      75      72      69     120       1      75      78      42      99       1
      78      75      72     123       1      81       3       6      84       1
      99      42      78     129       1     120      69      72     123       1
     123      72      75     126       1     126      75      78     129       1
       0       6      -3     -81      18       3      12      -6     -84      18
      21      87     -24     -63      18      27      90     -30     -18      18
      39      78     -42     -99      18      57     111     -54      -9      18
      57     114     -60     -51      18      27     117     -66     -33      18
      39      72     -69    -120      18      69      75     -72    -123      18
      72      78     -75    -126      18      42      75     -78    -129      18
%FLAG DIHEDRALS_WITHOUT_HYDROGEN                                                
%FORMAT(10I8)                                                                   
       0       3       6      12       1       0      45     -15      12       2
       0      45      15      21       2       0      57      54       9       3
       0      57      60      51       3       3       0      45      15       2
       3       0      57      54       4       3       0      57      60       5
       3       6     -12      15       1       3       6      12      63       1
      45       0       3       6       1      57       0       3       6       1
       6      12      15      21       1       6      12     -15      45       1
       6      12      63      24       6       9      51     -60      57       8
       9      54     -57      60       3      12      15     -21      24       5
      12      15      21      27       4      12      63     -24      21       9
      15      12     -63      24       6      15      21     -24      63       3
      15      21      27      30       3      15      21      27      66       3
      57       0      45      15       2      18      30      27      21       3
      18      30     -27      66       3      18      33      36      39       7
      18      33     -66      27       8      21      15     -12      63       1
      21      27      66      33       3      24      21      15      45      11
      24      21      27      30       3      24      21      27      66       3
      27      21      15      45      12      27      21     -15      45      13
      27      21     -15      45      14      27      21      24      63       3
      27      30     -18      33      15      27      66      33      36       8
      30      27     -66      33       3      30      18      33      36       2
      30      18     -33      66       2      33      36      39      42      16
      33      36      39      69      16      36      39      42      78       1
      36      39      69      72       1      39      36      33      66      17
      39      42      78      75       1      39      69     -72      75       1
      42      39      69      72       1      42      78     -75      72       1
      45       0      57      54      12      45       0     -57      54      13
      45       0     -57      54      14      45       0      57      60      11
      45      15      12      63       1      48      51       9      54       2
      48      51      60      57       8      51       9     -54      57      15
      51      60     -57      54       3      54       9     -51      60       2
      69      39      42      78       1      69      72     -75      78       1
      45       0     -57      -3      18       6      15     -12     -63      18
      12      21     -15     -45      18      15      24     -21     -27      18
      66      21     -27     -30      18      36      66     -33     -18      18
      42      69     -39     -36      18      48      60     -51      -9      18
       0      60     -57     -54      18
%FLAG EXCLUDED_ATOMS_LIST                                                       
%FORMAT(10I8)                                                                   
       2       3       4       5       6       8      16      18      19      20
      21      28      29      38      39       3       5       6      16      19
      20      21      22      28      29       5       6       8       9      16
      20      22      28      29      17      18      19      20      21      35
      36      37      38      39       6       8       9      10      16      22
      28      29      30       8       9      10      11      16      20      22
      23      29      30       8      10      11      12      13      14      23
      31      32      33      40       9      10      11      12      16      22
      23      30      31      40      10      11      16      22      23      30
      11      12      13      16      22      23      30      31      40      12
      13      23      31      40      13      14      15      23      24      31
      32      33      40      14      15      23      24      25      27      32
      33      34      40      41      15      23      24      25      26      27
      32      33      34      41      42      44      24      25      26      27
      32      33      34      41      43      44      19      20      21      22
      28      18      19      20      21      35      36      37      39      19
      20      21      35      36      37      38      39      20      21      38
      39      21      28      38      39      35      36      37      38      39
      29      30      31      32      33      40      25      26      27      32
      33      34      41      42      43      26      27      41      42      43
      44      27      34      41      42      43      44      34      42      43
      44      29       0       0       0      33       0      44      36      37
      37       0       0       0       0      42      43      44       0
%FLAG HBOND_ACOEF                                                               
%FORMAT(5E16.8)                                                                 

%FLAG HBOND_BCOEF                                                               
%FORMAT(5E16.8)                                                                 

%FLAG HBCUT                                                                     
%FORMAT(5E16.8)                                                                 

%FLAG AMBER_ATOM_TYPE                                                           
%FORMAT(20a4)                                                                   
ca  ca  ca  nc  ca  ca  nc  cd  cc  cd  cd  na  c3  ca  ca  nb  c3  na  cd  cd  
cc  os  cc  ca  ca  ca  ca  ha  ha  h4  h4  h1  h1  ha  h1  h1  h1  h4  h4  h4  
ha  ha  ha  ha  
%FLAG TREE_CHAIN_CLASSIFICATION                                                 
%FORMAT(20a4)                                                                   
BLA BLA BLA BLA BLA BLA BLA BLA BLA BLA BLA BLA BLA BLA BLA BLA BLA BLA BLA BLA 
BLA BLA BLA BLA BLA BLA BLA BLA BLA BLA BLA BLA BLA BLA BLA BLA BLA BLA BLA BLA 
BLA BLA BLA BLA 
%FLAG JOIN_ARRAY                                                                
%FORMAT(10I8)                                                                   
       0       0       0       0       0       0       0       0       0       0
       0       0       0       0       0       0       0       0       0       0
       0       0       0       0       0       0       0       0       0       0
       0       0       0       0       0       0       0       0       0       0
       0       0       0       0
%FLAG IROTAT                                                                    
%FORMAT(10I8)                                                                   
       0       0       0       0       0       0       0       0       0       0
       0       0       0       0       0       0       0       0       0       0
       0       0       0       0       0       0       0       0       0       0
       0       0       0       0       0       0       0       0       0       0
       0       0       0       0
%FLAG RADIUS_SET                                                                
%FORMAT(1a80)                                                                   
modified Bondi radii (mbondi)                                                   
%FLAG RADII                                                                     
%FORMAT(5E16.8)                                                                 
  1.70000000E+00  1.70000000E+00  1.70000000E+00  1.55000000E+00  1.70000000E+00
  1.70000000E+00  1.55000000E+00  1.70000000E+00  1.70000000E+00  1.70000000E+00
  1.70000000E+00  1.55000000E+00  1.70000000E+00  1.70000000E+00  1.70000000E+00
  1.55000000E+00  1.70000000E+00  1.55000000E+00  1.70000000E+00  1.70000000E+00
  1.70000000E+00  1.50000000E+00  1.70000000E+00  1.70000000E+00  1.70000000E+00
  1.70000000E+00  1.70000000E+00  1.30000000E+00  1.30000000E+00  1.30000000E+00
  1.30000000E+00  1.30000000E+00  1.30000000E+00  1.30000000E+00  1.30000000E+00
  1.30000000E+00  1.30000000E+00  1.30000000E+00  1.30000000E+00  1.30000000E+00
  1.30000000E+00  1.30000000E+00  1.30000000E+00  1.30000000E+00
%FLAG SCREEN                                                                    
%FORMAT(5E16.8)                                                                 
  7.20000000E-01  7.20000000E-01  7.20000000E-01  7.90000000E-01  7.20000000E-01
  7.20000000E-01  7.90000000E-01  7.20000000E-01  7.20000000E-01  7.20000000E-01
  7.20000000E-01  7.90000000E-01  7.20000000E-01  7.20000000E-01  7.20000000E-01
  7.90000000E-01  7.20000000E-01  7.90000000E-01  7.20000000E-01  7.20000000E-01
  7.20000000E-01  8.50000000E-01  7.20000000E-01  7.20000000E-01  7.20000000E-01
  7.20000000E-01  7.20000000E-01  8.50000000E-01  8.50000000E-01  8.50000000E-01
  8.50000000E-01  8.50000000E-01  8.50000000E-01  8.50000000E-01  8.50000000E-01
  8.50000000E-01  8.50000000E-01  8.50000000E-01  8.50000000E-01  8.50000000E-01
  8.50000000E-01  8.50000000E-01  8.50000000E-01  8.50000000E-01
%FLAG IPOL                                                                      
%FORMAT(1I8)                                                                    
       0
