ref_GMX.gro created by acpype (v: 2023.10.27) on Sun Aug 23 14:33:45 2026
 44
    1  UNL    C    1   2.058   4.281   1.077
    1  UNL   C1    2   2.093   4.205   0.965
    1  UNL   C2    3   2.055   4.250   0.839
    1  UNL    N    4   2.174   4.122   1.388
    1  UNL   C3    5   1.986   4.369   0.829
    1  UNL   C4    6   1.955   4.439   0.946
    1  UNL   N1    7   1.668   4.786   1.103
    1  UNL   C5    8   1.874   4.551   0.909
    1  UNL   C6    9   1.869   4.543   0.774
    1  UNL   C7   10   1.816   4.647   1.002
    1  UNL   C8   11   1.697   4.722   0.991
    1  UNL   N2   12   1.770   4.754   1.187
    1  UNL   C9   13   1.776   4.811   1.321
    1  UNL  C10   14   1.800   4.707   1.429
    1  UNL  C11   15   1.733   4.585   1.428
    1  UNL   N3   16   1.990   4.397   1.068
    1  UNL  C12   17   2.071   4.244   1.572
    1  UNL   N4   18   2.095   4.224   1.430
    1  UNL  C13   19   2.170   4.131   1.257
    1  UNL  C14   20   2.092   4.239   1.213
    1  UNL  C15   21   2.046   4.296   1.329
    1  UNL    O   22   1.936   4.436   0.721
    1  UNL  C16   23   1.859   4.671   1.131
    1  UNL  C17   24   1.884   4.735   1.536
    1  UNL  C18   25   1.895   4.647   1.642
    1  UNL  C19   26   1.826   4.528   1.641
    1  UNL  C20   27   1.748   4.496   1.532
    1  UNL    H   28   2.148   4.111   0.977
    1  UNL   H1   29   2.080   4.192   0.749
    1  UNL   H2   30   1.815   4.616   0.712
    1  UNL   H3   31   1.635   4.726   0.900
    1  UNL   H4   32   1.858   4.884   1.325
    1  UNL   H5   33   1.678   4.857   1.341
    1  UNL   H6   34   1.668   4.560   1.344
    1  UNL   H7   35   2.143   4.184   1.630
    1  UNL   H8   36   2.083   4.351   1.596
    1  UNL   H9   37   1.968   4.213   1.596
    1  UNL  H10   38   2.223   4.062   1.190
    1  UNL  H11   39   1.981   4.385   1.337
    1  UNL  H12   40   1.949   4.629   1.179
    1  UNL  H13   41   1.942   4.829   1.536
    1  UNL  H14   42   1.959   4.672   1.728
    1  UNL  H15   43   1.833   4.459   1.726
    1  UNL  H16   44   1.697   4.399   1.529
   11.76200    16.44000    20.31600
