; ref_GMX.itp created by acpype (v: 2023.10.27) on Sun Aug 23 14:33:45 2026

[ atomtypes ]
;name   bond_type     mass     charge   ptype   sigma         epsilon       Amb
 ca       ca          0.00000  0.00000   A     3.31521e-01   4.13379e-01 ; 1.86  0.0988
 nc       nc          0.00000  0.00000   A     3.38417e-01   3.93714e-01 ; 1.90  0.0941
 cd       cd          0.00000  0.00000   A     3.31521e-01   4.13379e-01 ; 1.86  0.0988
 cc       cc          0.00000  0.00000   A     3.31521e-01   4.13379e-01 ; 1.86  0.0988
 na       na          0.00000  0.00000   A     3.20581e-01   8.54373e-01 ; 1.80  0.2042
 c3       c3          0.00000  0.00000   A     3.39771e-01   4.51035e-01 ; 1.91  0.1078
 nb       nb          0.00000  0.00000   A     3.38417e-01   3.93714e-01 ; 1.90  0.0941
 os       os          0.00000  0.00000   A     3.15610e-01   3.03758e-01 ; 1.77  0.0726
 ha       ha          0.00000  0.00000   A     2.62548e-01   6.73624e-02 ; 1.47  0.0161
 h4       h4          0.00000  0.00000   A     2.53639e-01   6.73624e-02 ; 1.42  0.0161
 h1       h1          0.00000  0.00000   A     2.42200e-01   8.70272e-02 ; 1.36  0.0208

[ moleculetype ]
;name            nrexcl
 ref              3

[ atoms ]
;   nr  type  resi  res  atom  cgnr     charge      mass       ; qtot   bond_type
     1   ca     1   UNL     C    1     0.074057     12.01000 ; qtot 0.074
     2   ca     1   UNL    C1    2    -0.032976     12.01000 ; qtot 0.041
     3   ca     1   UNL    C2    3    -0.026842     12.01000 ; qtot 0.014
     4   nc     1   UNL     N    4    -0.189682     14.01000 ; qtot -0.175
     5   ca     1   UNL    C3    5     0.107646     12.01000 ; qtot -0.068
     6   ca     1   UNL    C4    6     0.104386     12.01000 ; qtot 0.037
     7   nc     1   UNL    N1    7    -0.189147     14.01000 ; qtot -0.153
     8   cd     1   UNL    C5    8     0.036465     12.01000 ; qtot -0.116
     9   cc     1   UNL    C6    9     0.056180     12.01000 ; qtot -0.060
    10   cd     1   UNL    C7   10     0.021593     12.01000 ; qtot -0.038
    11   cd     1   UNL    C8   11     0.054564     12.01000 ; qtot 0.016
    12   na     1   UNL    N2   12    -0.227791     14.01000 ; qtot -0.212
    13   c3     1   UNL    C9   13     0.058872     12.01000 ; qtot -0.153
    14   ca     1   UNL   C10   14    -0.028629     12.01000 ; qtot -0.181
    15   ca     1   UNL   C11   15    -0.057376     12.01000 ; qtot -0.239
    16   nb     1   UNL    N3   16    -0.244800     14.01000 ; qtot -0.483
    17   c3     1   UNL   C12   17     0.022551     12.01000 ; qtot -0.461
    18   na     1   UNL    N4   18    -0.235229     14.01000 ; qtot -0.696
    19   cd     1   UNL   C13   19     0.055956     12.01000 ; qtot -0.640
    20   cd     1   UNL   C14   20     0.035759     12.01000 ; qtot -0.604
    21   cc     1   UNL   C15   21     0.025110     12.01000 ; qtot -0.579
    22   os     1   UNL     O   22    -0.315144     16.00000 ; qtot -0.894
    23   cc     1   UNL   C16   23     0.024417     12.01000 ; qtot -0.870
    24   ca     1   UNL   C17   24    -0.057376     12.01000 ; qtot -0.927
    25   ca     1   UNL   C18   25    -0.061937     12.01000 ; qtot -0.989
    26   ca     1   UNL   C19   26    -0.062251     12.01000 ; qtot -1.052
    27   ca     1   UNL   C20   27    -0.061937     12.01000 ; qtot -1.114
    28   ha     1   UNL     H   28     0.064679      1.00800 ; qtot -1.049
    29   ha     1   UNL    H1   29     0.065226      1.00800 ; qtot -0.984
    30   h4     1   UNL    H2   30     0.090933      1.00800 ; qtot -0.893
    31   h4     1   UNL    H3   31     0.086437      1.00800 ; qtot -0.806
    32   h1     1   UNL    H4   32     0.054127      1.00800 ; qtot -0.752
    33   h1     1   UNL    H5   33     0.054127      1.00800 ; qtot -0.698
    34   ha     1   UNL    H6   34     0.062627      1.00800 ; qtot -0.635
    35   h1     1   UNL    H7   35     0.045354      1.00800 ; qtot -0.590
    36   h1     1   UNL    H8   36     0.045354      1.00800 ; qtot -0.545
    37   h1     1   UNL    H9   37     0.045354      1.00800 ; qtot -0.499
    38   h4     1   UNL   H10   38     0.086494      1.00800 ; qtot -0.413
    39   h4     1   UNL   H11   39     0.081705      1.00800 ; qtot -0.331
    40   h4     1   UNL   H12   40     0.081676      1.00800 ; qtot -0.249
    41   ha     1   UNL   H13   41     0.062627      1.00800 ; qtot -0.187
    42   ha     1   UNL   H14   42     0.062284      1.00800 ; qtot -0.125
    43   ha     1   UNL   H15   43     0.062273      1.00800 ; qtot -0.062
    44   ha     1   UNL   H16   44     0.062284      1.00800 ; qtot -0.000

[ bonds ]
;   ai     aj funct   r             k
     1      2   1    1.3986e-01    2.9644e+05 ;      C - C1    
     1     16   1    1.3392e-01    3.2341e+05 ;      C - N3    
     1     20   1    1.4610e-01    2.4166e+05 ;      C - C14   
     2      3   1    1.3986e-01    2.9644e+05 ;     C1 - C2    
     2     28   1    1.0860e-01    3.0183e+05 ;     C1 - H     
     3      5   1    1.3986e-01    2.9644e+05 ;     C2 - C3    
     3     29   1    1.0860e-01    3.0183e+05 ;     C2 - H1    
     4     18   1    1.3570e-01    2.4302e+05 ;      N - N4    
     4     19   1    1.3171e-01    3.4961e+05 ;      N - C13   
     5      6   1    1.3986e-01    2.9644e+05 ;     C3 - C4    
     5     22   1    1.3688e-01    2.8731e+05 ;     C3 - O     
     6      8   1    1.4610e-01    2.4166e+05 ;     C4 - C5    
     6     16   1    1.3392e-01    3.2341e+05 ;     C4 - N3    
     7     11   1    1.3171e-01    3.4961e+05 ;     N1 - C8    
     7     12   1    1.3570e-01    2.4302e+05 ;     N1 - N2    
     8      9   1    1.3730e-01    3.2321e+05 ;     C5 - C6    
     8     10   1    1.4279e-01    2.6902e+05 ;     C5 - C7    
     9     22   1    1.3622e-01    2.9388e+05 ;     C6 - O     
     9     30   1    1.0809e-01    3.0854e+05 ;     C6 - H2    
    10     11   1    1.4279e-01    2.6902e+05 ;     C7 - C8    
    10     23   1    1.3730e-01    3.2321e+05 ;     C7 - C16   
    11     31   1    1.0818e-01    3.0735e+05 ;     C8 - H3    
    12     13   1    1.4639e-01    2.1321e+05 ;     N2 - C9    
    12     23   1    1.3803e-01    2.8075e+05 ;     N2 - C16   
    13     14   1    1.5147e-01    2.0410e+05 ;     C9 - C10   
    13     32   1    1.0969e-01    2.8804e+05 ;     C9 - H4    
    13     33   1    1.0969e-01    2.8804e+05 ;     C9 - H5    
    14     15   1    1.3986e-01    2.9644e+05 ;    C10 - C11   
    14     24   1    1.3986e-01    2.9644e+05 ;    C10 - C17   
    15     27   1    1.3986e-01    2.9644e+05 ;    C11 - C20   
    15     34   1    1.0860e-01    3.0183e+05 ;    C11 - H6    
    17     18   1    1.4639e-01    2.1321e+05 ;    C12 - N4    
    17     35   1    1.0969e-01    2.8804e+05 ;    C12 - H7    
    17     36   1    1.0969e-01    2.8804e+05 ;    C12 - H8    
    17     37   1    1.0969e-01    2.8804e+05 ;    C12 - H9    
    18     21   1    1.3803e-01    2.8075e+05 ;     N4 - C15   
    19     20   1    1.4279e-01    2.6902e+05 ;    C13 - C14   
    19     38   1    1.0818e-01    3.0735e+05 ;    C13 - H10   
    20     21   1    1.3730e-01    3.2321e+05 ;    C14 - C15   
    21     39   1    1.0809e-01    3.0854e+05 ;    C15 - H11   
    23     40   1    1.0809e-01    3.0854e+05 ;    C16 - H12   
    24     25   1    1.3986e-01    2.9644e+05 ;    C17 - C18   
    24     41   1    1.0860e-01    3.0183e+05 ;    C17 - H13   
    25     26   1    1.3986e-01    2.9644e+05 ;    C18 - C19   
    25     42   1    1.0860e-01    3.0183e+05 ;    C18 - H14   
    26     27   1    1.3986e-01    2.9644e+05 ;    C19 - C20   
    26     43   1    1.0860e-01    3.0183e+05 ;    C19 - H15   
    27     44   1    1.0860e-01    3.0183e+05 ;    C20 - H16   

[ pairs ]
;   ai     aj    funct
     1      4      1 ;      C - N     
     1      5      1 ;      C - C3    
     1      8      1 ;      C - C5    
     1     18      1 ;      C - N4    
     1     29      1 ;      C - H1    
     1     38      1 ;      C - H10   
     1     39      1 ;      C - H11   
     2      6      1 ;     C1 - C4    
     2     19      1 ;     C1 - C13   
     2     21      1 ;     C1 - C15   
     2     22      1 ;     C1 - O     
     3      8      1 ;     C2 - C5    
     3      9      1 ;     C2 - C6    
     4     35      1 ;      N - H7    
     4     36      1 ;      N - H8    
     4     37      1 ;      N - H9    
     4     39      1 ;      N - H11   
     5     10      1 ;     C3 - C7    
     5     28      1 ;     C3 - H     
     5     30      1 ;     C3 - H2    
     6     11      1 ;     C4 - C8    
     6     23      1 ;     C4 - C16   
     6     29      1 ;     C4 - H1    
     6     30      1 ;     C4 - H2    
     7      8      1 ;     N1 - C5    
     7     14      1 ;     N1 - C10   
     7     32      1 ;     N1 - H4    
     7     33      1 ;     N1 - H5    
     7     40      1 ;     N1 - H12   
     8     12      1 ;     C5 - N2    
     8     31      1 ;     C5 - H3    
     8     40      1 ;     C5 - H12   
     9     11      1 ;     C6 - C8    
     9     16      1 ;     C6 - N3    
     9     23      1 ;     C6 - C16   
    10     13      1 ;     C7 - C9    
    10     16      1 ;     C7 - N3    
    10     22      1 ;     C7 - O     
    10     30      1 ;     C7 - H2    
    11     13      1 ;     C8 - C9    
    11     40      1 ;     C8 - H12   
    12     15      1 ;     N2 - C11   
    12     24      1 ;     N2 - C17   
    12     31      1 ;     N2 - H3    
    13     25      1 ;     C9 - C18   
    13     27      1 ;     C9 - C20   
    13     34      1 ;     C9 - H6    
    13     40      1 ;     C9 - H12   
    13     41      1 ;     C9 - H13   
    14     23      1 ;    C10 - C16   
    14     26      1 ;    C10 - C19   
    14     42      1 ;    C10 - H14   
    14     44      1 ;    C10 - H16   
    15     25      1 ;    C11 - C18   
    15     32      1 ;    C11 - H4    
    15     33      1 ;    C11 - H5    
    15     41      1 ;    C11 - H13   
    15     43      1 ;    C11 - H15   
    16      3      1 ;     N3 - C2    
    16     19      1 ;     N3 - C13   
    16     21      1 ;     N3 - C15   
    16     22      1 ;     N3 - O     
    16     28      1 ;     N3 - H     
    17     19      1 ;    C12 - C13   
    17     20      1 ;    C12 - C14   
    17     39      1 ;    C12 - H11   
    18     38      1 ;     N4 - H10   
    19     39      1 ;    C13 - H11   
    20      3      1 ;    C14 - C2    
    20      6      1 ;    C14 - C4    
    20     28      1 ;    C14 - H     
    21     35      1 ;    C15 - H7    
    21     36      1 ;    C15 - H8    
    21     37      1 ;    C15 - H9    
    21     38      1 ;    C15 - H10   
    22     29      1 ;      O - H1    
    23     31      1 ;    C16 - H3    
    23     32      1 ;    C16 - H4    
    23     33      1 ;    C16 - H5    
    24     27      1 ;    C17 - C20   
    24     32      1 ;    C17 - H4    
    24     33      1 ;    C17 - H5    
    24     34      1 ;    C17 - H6    
    24     43      1 ;    C17 - H15   
    25     44      1 ;    C18 - H16   
    26     34      1 ;    C19 - H6    
    26     41      1 ;    C19 - H13   
    27     42      1 ;    C20 - H14   
    28     29      1 ;      H - H1    
    34     44      1 ;     H6 - H16   
    41     42      1 ;    H13 - H14   
    42     43      1 ;    H14 - H15   
    43     44      1 ;    H15 - H16   

[ angles ]
;   ai     aj     ak    funct   theta         cth
     1      2      3      1    1.2002e+02    5.3279e+02 ;      C - C1     - C2    
     1      2     28      1    1.1988e+02    3.7572e+02 ;      C - C1     - H     
     1     16      6      1    1.1724e+02    6.9580e+02 ;      C - N3     - C4    
     1     20     19      1    1.2486e+02    5.0568e+02 ;      C - C14    - C13   
     1     20     21      1    1.2429e+02    5.1580e+02 ;      C - C14    - C15   
     2      1     16      1    1.2294e+02    5.7045e+02 ;     C1 - C      - N3    
     2      1     20      1    1.2083e+02    5.1898e+02 ;     C1 - C      - C14   
     2      3      5      1    1.2002e+02    5.3279e+02 ;     C1 - C2     - C3    
     2      3     29      1    1.1988e+02    3.7572e+02 ;     C1 - C2     - H1    
     3      2     28      1    1.1988e+02    3.7572e+02 ;     C2 - C1     - H     
     3      5      6      1    1.2002e+02    5.3279e+02 ;     C2 - C3     - C4    
     3      5     22      1    1.1911e+02    6.6107e+02 ;     C2 - C3     - O     
     4     18     17      1    1.2019e+02    6.9069e+02 ;      N - N4     - C12   
     4     18     21      1    1.1457e+02    7.3103e+02 ;      N - N4     - C15   
     4     19     20      1    1.2070e+02    5.7287e+02 ;      N - C13    - C14   
     4     19     38      1    1.1814e+02    4.2133e+02 ;      N - C13    - H10   
     5      3     29      1    1.1988e+02    3.7572e+02 ;     C3 - C2     - H1    
     5      6      8      1    1.2083e+02    5.1898e+02 ;     C3 - C4     - C5    
     5      6     16      1    1.2294e+02    5.7045e+02 ;     C3 - C4     - N3    
     5     22      9      1    1.0590e+02    8.0023e+02 ;     C3 - O      - C6    
     6      5     22      1    1.1911e+02    6.6107e+02 ;     C4 - C3     - O     
     6      8      9      1    1.2429e+02    5.1580e+02 ;     C4 - C5     - C6    
     6      8     10      1    1.2486e+02    5.0568e+02 ;     C4 - C5     - C7    
     7     11     10      1    1.2070e+02    5.7287e+02 ;     N1 - C8     - C7    
     7     11     31      1    1.1814e+02    4.2133e+02 ;     N1 - C8     - H3    
     7     12     13      1    1.2019e+02    6.9069e+02 ;     N1 - N2     - C9    
     7     12     23      1    1.1457e+02    7.3103e+02 ;     N1 - N2     - C16   
     8      6     16      1    1.1734e+02    5.6928e+02 ;     C5 - C4     - N3    
     8      9     22      1    1.1153e+02    6.9136e+02 ;     C5 - C6     - O     
     8      9     30      1    1.2911e+02    3.6777e+02 ;     C5 - C6     - H2    
     8     10     11      1    1.2001e+02    5.2191e+02 ;     C5 - C7     - C8    
     8     10     23      1    1.1621e+02    5.4032e+02 ;     C5 - C7     - C16   
     9      8     10      1    1.1621e+02    5.4032e+02 ;     C6 - C5     - C7    
    10     11     31      1    1.2675e+02    3.5949e+02 ;     C7 - C8     - H3    
    10     23     12      1    1.0675e+02    6.0927e+02 ;     C7 - C16    - N2    
    10     23     40      1    1.2911e+02    3.6777e+02 ;     C7 - C16    - H12   
    11      7     12      1    1.0383e+02    7.8576e+02 ;     C8 - N1     - N2    
    11     10     23      1    1.1621e+02    5.4032e+02 ;     C8 - C7     - C16   
    12     13     14      1    1.1310e+02    5.4685e+02 ;     N2 - C9     - C10   
    12     13     32      1    1.0876e+02    4.0250e+02 ;     N2 - C9     - H4    
    12     13     33      1    1.0876e+02    4.0250e+02 ;     N2 - C9     - H5    
    12     23     40      1    1.2101e+02    4.0158e+02 ;     N2 - C16    - H12   
    13     12     23      1    1.2665e+02    6.2936e+02 ;     C9 - N2     - C16   
    13     14     15      1    1.2083e+02    5.0827e+02 ;     C9 - C10    - C11   
    13     14     24      1    1.2083e+02    5.0827e+02 ;     C9 - C10    - C17   
    14     13     32      1    1.0960e+02    3.6660e+02 ;    C10 - C9     - H4    
    14     13     33      1    1.0960e+02    3.6660e+02 ;    C10 - C9     - H5    
    14     15     27      1    1.2002e+02    5.3279e+02 ;    C10 - C11    - C20   
    14     15     34      1    1.1988e+02    3.7572e+02 ;    C10 - C11    - H6    
    14     24     25      1    1.2002e+02    5.3279e+02 ;    C10 - C17    - C18   
    14     24     41      1    1.1988e+02    3.7572e+02 ;    C10 - C17    - H13   
    15     14     24      1    1.2002e+02    5.3279e+02 ;    C11 - C10    - C17   
    15     27     26      1    1.2002e+02    5.3279e+02 ;    C11 - C20    - C19   
    15     27     44      1    1.1988e+02    3.7572e+02 ;    C11 - C20    - H16   
    16      1     20      1    1.1734e+02    5.6928e+02 ;     N3 - C      - C14   
    17     18     21      1    1.2665e+02    6.2936e+02 ;    C12 - N4     - C15   
    18      4     19      1    1.0383e+02    7.8576e+02 ;     N4 - N      - C13   
    18     17     35      1    1.0876e+02    4.0250e+02 ;     N4 - C12    - H7    
    18     17     36      1    1.0876e+02    4.0250e+02 ;     N4 - C12    - H8    
    18     17     37      1    1.0876e+02    4.0250e+02 ;     N4 - C12    - H9    
    18     21     20      1    1.0675e+02    6.0927e+02 ;     N4 - C15    - C14   
    18     21     39      1    1.2101e+02    4.0158e+02 ;     N4 - C15    - H11   
    19     20     21      1    1.1621e+02    5.4032e+02 ;    C13 - C14    - C15   
    20     19     38      1    1.2675e+02    3.5949e+02 ;    C14 - C13    - H10   
    20     21     39      1    1.2911e+02    3.6777e+02 ;    C14 - C15    - H11   
    22      9     30      1    1.1555e+02    4.7848e+02 ;      O - C6     - H2    
    24     25     26      1    1.2002e+02    5.3279e+02 ;    C17 - C18    - C19   
    24     25     42      1    1.1988e+02    3.7572e+02 ;    C17 - C18    - H14   
    25     24     41      1    1.1988e+02    3.7572e+02 ;    C18 - C17    - H13   
    25     26     27      1    1.2002e+02    5.3279e+02 ;    C18 - C19    - C20   
    25     26     43      1    1.1988e+02    3.7572e+02 ;    C18 - C19    - H15   
    26     25     42      1    1.1988e+02    3.7572e+02 ;    C19 - C18    - H14   
    26     27     44      1    1.1988e+02    3.7572e+02 ;    C19 - C20    - H16   
    27     15     34      1    1.1988e+02    3.7572e+02 ;    C20 - C11    - H6    
    27     26     43      1    1.1988e+02    3.7572e+02 ;    C20 - C19    - H15   
    32     13     33      1    1.0855e+02    2.9824e+02 ;     H4 - C9     - H5    
    35     17     36      1    1.0855e+02    2.9824e+02 ;     H7 - C12    - H8    
    35     17     37      1    1.0855e+02    2.9824e+02 ;     H7 - C12    - H9    
    36     17     37      1    1.0855e+02    2.9824e+02 ;     H8 - C12    - H9    

[ dihedrals ] ; propers
; for gromacs 4.5 or higher, using funct 9
;    i      j      k      l   func   phase     kd      pn
     1      2      3      5      9   180.00  15.16700   2 ;      C-    C1-    C2-    C3
     1      2      3     29      9   180.00  15.16700   2 ;      C-    C1-    C2-    H1
     1     16      6      5      9   180.00  20.08320   2 ;      C-    N3-    C4-    C3
     1     16      6      8      9   180.00  20.08320   2 ;      C-    N3-    C4-    C5
     1     20     19      4      9   180.00  16.73600   2 ;      C-   C14-   C13-     N
     1     20     19     38      9   180.00  16.73600   2 ;      C-   C14-   C13-   H10
     1     20     21     18      9   180.00  16.73600   2 ;      C-   C14-   C15-    N4
     1     20     21     39      9   180.00  16.73600   2 ;      C-   C14-   C15-   H11
     2      1     16      6      9   180.00  20.08320   2 ;     C1-     C-    N3-    C4
     2      1     20     19      9   180.00   2.44764   2 ;     C1-     C-   C14-   C13
     2      1     20     21      9   180.00  15.77368   2 ;     C1-     C-   C14-   C15
     2      3      5      6      9   180.00  15.16700   2 ;     C1-    C2-    C3-    C4
     2      3      5     22      9   180.00  15.16700   2 ;     C1-    C2-    C3-     O
     3      5      6      8      9   180.00  15.16700   2 ;     C2-    C3-    C4-    C5
     3      5      6     16      9   180.00  15.16700   2 ;     C2-    C3-    C4-    N3
     3      5     22      9      9   180.00   7.63580   2 ;     C2-    C3-     O-    C6
     4     18     17     35      9     0.00   0.00000   0 ;      N-    N4-   C12-    H7
     4     18     17     36      9     0.00   0.00000   0 ;      N-    N4-   C12-    H8
     4     18     17     37      9     0.00   0.00000   0 ;      N-    N4-   C12-    H9
     4     18     21     20      9   180.00   7.11280   2 ;      N-    N4-   C15-   C14
     4     18     21     39      9   180.00   7.11280   2 ;      N-    N4-   C15-   H11
     4     19     20     21      9   180.00  16.73600   2 ;      N-   C13-   C14-   C15
     5      3      2     28      9   180.00  15.16700   2 ;     C3-    C2-    C1-     H
     5      6      8      9      9   180.00  15.77368   2 ;     C3-    C4-    C5-    C6
     5      6      8     10      9   180.00   2.44764   2 ;     C3-    C4-    C5-    C7
     5     22      9      8      9   180.00   2.71960   1 ;     C3-     O-    C6-    C5
     5     22      9     30      9   180.00   4.39320   2 ;     C3-     O-    C6-    H2
     6      5      3     29      9   180.00  15.16700   2 ;     C4-    C3-    C2-    H1
     6      5     22      9      9   180.00   7.63580   2 ;     C4-    C3-     O-    C6
     6      8      9     22      9   180.00  16.73600   2 ;     C4-    C5-    C6-     O
     6      8      9     30      9   180.00  16.73600   2 ;     C4-    C5-    C6-    H2
     6      8     10     11      9   180.00  16.73600   2 ;     C4-    C5-    C7-    C8
     6      8     10     23      9   180.00  16.73600   2 ;     C4-    C5-    C7-   C16
     7     11     10      8      9   180.00  16.73600   2 ;     N1-    C8-    C7-    C5
     7     11     10     23      9   180.00  16.73600   2 ;     N1-    C8-    C7-   C16
     7     12     13     14      9     0.00   0.00000   0 ;     N1-    N2-    C9-   C10
     7     12     13     32      9     0.00   0.00000   0 ;     N1-    N2-    C9-    H4
     7     12     13     33      9     0.00   0.00000   0 ;     N1-    N2-    C9-    H5
     7     12     23     10      9   180.00   7.11280   2 ;     N1-    N2-   C16-    C7
     7     12     23     40      9   180.00   7.11280   2 ;     N1-    N2-   C16-   H12
     8      6      5     22      9   180.00  15.16700   2 ;     C5-    C4-    C3-     O
     8     10     11     31      9   180.00  16.73600   2 ;     C5-    C7-    C8-    H3
     8     10     23     12      9   180.00  16.73600   2 ;     C5-    C7-   C16-    N2
     8     10     23     40      9   180.00  16.73600   2 ;     C5-    C7-   C16-   H12
     9      8      6     16      9   180.00   6.15048   1 ;     C6-    C5-    C4-    N3
     9      8     10     11      9   180.00  16.73600   2 ;     C6-    C5-    C7-    C8
     9      8     10     23      9   180.00  16.73600   2 ;     C6-    C5-    C7-   C16
    10      8      6     16      9   180.00   3.13800   3 ;     C7-    C5-    C4-    N3
    10      8      6     16      9   180.00   3.43088   1 ;     C7-    C5-    C4-    N3
    10      8      6     16      9   180.00   4.18400   2 ;     C7-    C5-    C4-    N3
    10      8      9     22      9   180.00  16.73600   2 ;     C7-    C5-    C6-     O
    10      8      9     30      9   180.00  16.73600   2 ;     C7-    C5-    C6-    H2
    10     11      7     12      9   180.00  19.87400   2 ;     C7-    C8-    N1-    N2
    10     23     12     13      9   180.00   7.11280   2 ;     C7-   C16-    N2-    C9
    11      7     12     13      9   180.00  20.08320   2 ;     C8-    N1-    N2-    C9
    11      7     12     23      9   180.00  20.08320   2 ;     C8-    N1-    N2-   C16
    11     10     23     12      9   180.00  16.73600   2 ;     C8-    C7-   C16-    N2
    11     10     23     40      9   180.00  16.73600   2 ;     C8-    C7-   C16-   H12
    12      7     11     31      9   180.00  19.87400   2 ;     N2-    N1-    C8-    H3
    12     13     14     15      9   180.00   1.23428   2 ;     N2-    C9-   C10-   C11
    12     13     14     24      9   180.00   1.23428   2 ;     N2-    C9-   C10-   C17
    13     12     23     40      9   180.00   7.11280   2 ;     C9-    N2-   C16-   H12
    13     14     15     27      9   180.00  15.16700   2 ;     C9-   C10-   C11-   C20
    13     14     15     34      9   180.00  15.16700   2 ;     C9-   C10-   C11-    H6
    13     14     24     25      9   180.00  15.16700   2 ;     C9-   C10-   C17-   C18
    13     14     24     41      9   180.00  15.16700   2 ;     C9-   C10-   C17-   H13
    14     13     12     23      9     0.00   2.35001   2 ;    C10-    C9-    N2-   C16
    14     15     27     26      9   180.00  15.16700   2 ;    C10-   C11-   C20-   C19
    14     15     27     44      9   180.00  15.16700   2 ;    C10-   C11-   C20-   H16
    14     24     25     26      9   180.00  15.16700   2 ;    C10-   C17-   C18-   C19
    14     24     25     42      9   180.00  15.16700   2 ;    C10-   C17-   C18-   H14
    15     14     13     32      9     0.00   0.00000   0 ;    C11-   C10-    C9-    H4
    15     14     13     33      9     0.00   0.00000   0 ;    C11-   C10-    C9-    H5
    15     14     24     25      9   180.00  15.16700   2 ;    C11-   C10-   C17-   C18
    15     14     24     41      9   180.00  15.16700   2 ;    C11-   C10-   C17-   H13
    15     27     26     25      9   180.00  15.16700   2 ;    C11-   C20-   C19-   C18
    15     27     26     43      9   180.00  15.16700   2 ;    C11-   C20-   C19-   H15
    16      1      2      3      9   180.00  15.16700   2 ;     N3-     C-    C1-    C2
    16      1      2     28      9   180.00  15.16700   2 ;     N3-     C-    C1-     H
    16      1     20     19      9   180.00   3.13800   3 ;     N3-     C-   C14-   C13
    16      1     20     19      9   180.00   3.43088   1 ;     N3-     C-   C14-   C13
    16      1     20     19      9   180.00   4.18400   2 ;     N3-     C-   C14-   C13
    16      1     20     21      9   180.00   6.15048   1 ;     N3-     C-   C14-   C15
    16      6      5     22      9   180.00  15.16700   2 ;     N3-    C4-    C3-     O
    17     18      4     19      9   180.00  20.08320   2 ;    C12-    N4-     N-   C13
    17     18     21     20      9   180.00   7.11280   2 ;    C12-    N4-   C15-   C14
    17     18     21     39      9   180.00   7.11280   2 ;    C12-    N4-   C15-   H11
    18      4     19     20      9   180.00  19.87400   2 ;     N4-     N-   C13-   C14
    18      4     19     38      9   180.00  19.87400   2 ;     N4-     N-   C13-   H10
    18     21     20     19      9   180.00  16.73600   2 ;     N4-   C15-   C14-   C13
    19      4     18     21      9   180.00  20.08320   2 ;    C13-     N-    N4-   C15
    19     20     21     39      9   180.00  16.73600   2 ;    C13-   C14-   C15-   H11
    20      1      2      3      9   180.00  15.16700   2 ;    C14-     C-    C1-    C2
    20      1      2     28      9   180.00  15.16700   2 ;    C14-     C-    C1-     H
    20      1     16      6      9   180.00  20.08320   2 ;    C14-     C-    N3-    C4
    21     18     17     35      9     0.00   0.00000   0 ;    C15-    N4-   C12-    H7
    21     18     17     36      9     0.00   0.00000   0 ;    C15-    N4-   C12-    H8
    21     18     17     37      9     0.00   0.00000   0 ;    C15-    N4-   C12-    H9
    21     20     19     38      9   180.00  16.73600   2 ;    C15-   C14-   C13-   H10
    22      5      3     29      9   180.00  15.16700   2 ;      O-    C3-    C2-    H1
    23     10     11     31      9   180.00  16.73600   2 ;    C16-    C7-    C8-    H3
    23     12     13     32      9     0.00   0.00000   0 ;    C16-    N2-    C9-    H4
    23     12     13     33      9     0.00   0.00000   0 ;    C16-    N2-    C9-    H5
    24     14     13     32      9     0.00   0.00000   0 ;    C17-   C10-    C9-    H4
    24     14     13     33      9     0.00   0.00000   0 ;    C17-   C10-    C9-    H5
    24     14     15     27      9   180.00  15.16700   2 ;    C17-   C10-   C11-   C20
    24     14     15     34      9   180.00  15.16700   2 ;    C17-   C10-   C11-    H6
    24     25     26     27      9   180.00  15.16700   2 ;    C17-   C18-   C19-   C20
    24     25     26     43      9   180.00  15.16700   2 ;    C17-   C18-   C19-   H15
    25     26     27     44      9   180.00  15.16700   2 ;    C18-   C19-   C20-   H16
    26     25     24     41      9   180.00  15.16700   2 ;    C19-   C18-   C17-   H13
    26     27     15     34      9   180.00  15.16700   2 ;    C19-   C20-   C11-    H6
    27     26     25     42      9   180.00  15.16700   2 ;    C20-   C19-   C18-   H14
    28      2      3     29      9   180.00  15.16700   2 ;      H-    C1-    C2-    H1
    34     15     27     44      9   180.00  15.16700   2 ;     H6-   C11-   C20-   H16
    41     24     25     42      9   180.00  15.16700   2 ;    H13-   C17-   C18-   H14
    42     25     26     43      9   180.00  15.16700   2 ;    H14-   C18-   C19-   H15
    43     26     27     44      9   180.00  15.16700   2 ;    H15-   C19-   C20-   H16

[ dihedrals ] ; impropers
; treated as propers in GROMACS to use correct AMBER analytical function
;    i      j      k      l   func   phase     kd      pn
     1      3      2     28      4   180.00   4.60240   2 ;      C-    C2-    C1-     H
     1     21     20     19      4   180.00   4.60240   2 ;      C-   C15-   C14-   C13
     2      5      3     29      4   180.00   4.60240   2 ;     C1-    C3-    C2-    H1
     3      6      5     22      4   180.00   4.60240   2 ;     C2-    C4-    C3-     O
     5      8      6     16      4   180.00   4.60240   2 ;     C3-    C5-    C4-    N3
     6      9      8     10      4   180.00   4.60240   2 ;     C4-    C6-    C5-    C7
     8     30      9     22      4   180.00   4.60240   2 ;     C5-    H2-    C6-     O
    10     31     11      7      4   180.00   4.60240   2 ;     C7-    H3-    C8-    N1
    10     40     23     12      4   180.00   4.60240   2 ;     C7-   H12-   C16-    N2
    13     23     12      7      4   180.00   4.60240   2 ;     C9-   C16-    N2-    N1
    14     25     24     41      4   180.00   4.60240   2 ;    C10-   C18-   C17-   H13
    14     27     15     34      4   180.00   4.60240   2 ;    C10-   C20-   C11-    H6
    15     24     14     13      4   180.00   4.60240   2 ;    C11-   C17-   C10-    C9
    15     26     27     44      4   180.00   4.60240   2 ;    C11-   C19-   C20-   H16
    16      1     20      2      4   180.00   4.60240   2 ;     N3-     C-   C14-    C1
    17     21     18      4      4   180.00   4.60240   2 ;    C12-   C15-    N4-     N
    20     38     19      4      4   180.00   4.60240   2 ;    C14-   H10-   C13-     N
    20     39     21     18      4   180.00   4.60240   2 ;    C14-   H11-   C15-    N4
    23      8     10     11      4   180.00   4.60240   2 ;    C16-    C5-    C7-    C8
    24     26     25     42      4   180.00   4.60240   2 ;    C17-   C19-   C18-   H14
    25     27     26     43      4   180.00   4.60240   2 ;    C18-   C20-   C19-   H15
