*****
    44
  20.5790000  42.8130000  10.7670000  20.9250000  42.0530000   9.6520000
  20.5540000  42.4990000   8.3920000  21.7350000  41.2180000  13.8820000
  19.8640000  43.6930000   8.2890000  19.5480000  44.3850000   9.4610000
  16.6850000  47.8560000  11.0290000  18.7400000  45.5060000   9.0920000
  18.6860000  45.4300000   7.7400000  18.1610000  46.4670000  10.0220000
  16.9690000  47.2160000   9.9130000  17.7050000  47.5410000  11.8670000
  17.7610000  48.1070000  13.2120000  18.0020000  47.0710000  14.2870000
  17.3340000  45.8540000  14.2810000  19.9010000  43.9710000  10.6810000
  20.7080000  42.4420000  15.7170000  20.9490000  42.2410000  14.3000000
  21.7040000  41.3110000  12.5720000  20.9170000  42.3930000  12.1340000
  20.4580000  42.9630000  13.2860000  19.3610000  44.3620000   7.2110000
  18.5910000  46.7080000  11.3090000  18.8350000  47.3530000  15.3550000
  18.9470000  46.4680000  16.4220000  18.2600000  45.2810000  16.4090000
  17.4810000  44.9600000  15.3240000  21.4840000  41.1130000   9.7690000
  20.8030000  41.9150000   7.4940000  18.1470000  46.1620000   7.1210000
  16.3510000  47.2600000   9.0040000  18.5780000  48.8430000  13.2470000
  16.7810000  48.5650000  13.4140000  16.6790000  45.5980000  13.4350000
  21.4250000  41.8440000  16.2990000  20.8340000  43.5070000  15.9630000
  19.6830000  42.1270000  15.9630000  22.2320000  40.6230000  11.8950000
  19.8080000  43.8470000  13.3660000  19.4910000  46.2940000  11.7870000
  19.4150000  48.2880000  15.3600000  19.5890000  46.7210000  17.2790000
  18.3320000  44.5900000  17.2620000  16.9710000  43.9860000  15.2850000
