; H3E_cryst_GMX.top created by acpype (v: 2023.10.27) on Sun Aug 23 13:12:49 2026

[ defaults ]
; nbfunc        comb-rule       gen-pairs       fudgeLJ fudgeQQ
1               2               yes             0.5     0.8333333333

; Include H3E_cryst_GMX.itp topology
#include "H3E_cryst_GMX.itp"

; Ligand position restraints
#ifdef POSRES_LIG
#include "posre_H3E_cryst.itp"
#endif

[ system ]
 H3E_cryst

[ molecules ]
; Compound        nmols
 H3E_cryst        1     
