; mut_GMX.itp created by acpype (v: 2023.10.27) on Sun Aug 23 14:33:46 2026

[ atomtypes ]
;name   bond_type     mass     charge   ptype   sigma         epsilon       Amb
 na       na          0.00000  0.00000   A     3.20581e-01   8.54373e-01 ; 1.80  0.2042
 cc       cc          0.00000  0.00000   A     3.31521e-01   4.13379e-01 ; 1.86  0.0988
 cd       cd          0.00000  0.00000   A     3.31521e-01   4.13379e-01 ; 1.86  0.0988
 nc       nc          0.00000  0.00000   A     3.38417e-01   3.93714e-01 ; 1.90  0.0941
 ca       ca          0.00000  0.00000   A     3.31521e-01   4.13379e-01 ; 1.86  0.0988
 nb       nb          0.00000  0.00000   A     3.38417e-01   3.93714e-01 ; 1.90  0.0941
 os       os          0.00000  0.00000   A     3.15610e-01   3.03758e-01 ; 1.77  0.0726
 nd       nd          0.00000  0.00000   A     3.38417e-01   3.93714e-01 ; 1.90  0.0941
 c3       c3          0.00000  0.00000   A     3.39771e-01   4.51035e-01 ; 1.91  0.1078
 hn       hn          0.00000  0.00000   A     1.10650e-01   4.18400e-02 ; 0.62  0.0100
 h4       h4          0.00000  0.00000   A     2.53639e-01   6.73624e-02 ; 1.42  0.0161
 ha       ha          0.00000  0.00000   A     2.62548e-01   6.73624e-02 ; 1.47  0.0161
 h1       h1          0.00000  0.00000   A     2.42200e-01   8.70272e-02 ; 1.36  0.0208

[ moleculetype ]
;name            nrexcl
 mut              3

[ atoms ]
;   nr  type  resi  res  atom  cgnr     charge      mass       ; qtot   bond_type
     1   na     1   UNL     N    1    -0.245202     14.01000 ; qtot -0.245
     2   cc     1   UNL     C    2     0.022194     12.01000 ; qtot -0.223
     3   cd     1   UNL    C1    3     0.035497     12.01000 ; qtot -0.188
     4   cd     1   UNL    C2    4     0.055708     12.01000 ; qtot -0.132
     5   nc     1   UNL    N1    5    -0.192169     14.01000 ; qtot -0.324
     6   ca     1   UNL    C3    6     0.074047     12.01000 ; qtot -0.250
     7   ca     1   UNL    C4    7    -0.032976     12.01000 ; qtot -0.283
     8   ca     1   UNL    C5    8    -0.026842     12.01000 ; qtot -0.310
     9   ca     1   UNL    C6    9     0.107646     12.01000 ; qtot -0.202
    10   ca     1   UNL    C7   10     0.104386     12.01000 ; qtot -0.098
    11   nb     1   UNL    N2   11    -0.244800     14.01000 ; qtot -0.343
    12   cc     1   UNL    C8   12     0.036465     12.01000 ; qtot -0.306
    13   cd     1   UNL    C9   13     0.056180     12.01000 ; qtot -0.250
    14   os     1   UNL     O   14    -0.315141     16.00000 ; qtot -0.565
    15   cc     1   UNL   C10   15     0.021593     12.01000 ; qtot -0.543
    16   cc     1   UNL   C11   16     0.054564     12.01000 ; qtot -0.489
    17   nd     1   UNL    N3   17    -0.189147     14.01000 ; qtot -0.678
    18   na     1   UNL    N4   18    -0.227791     14.01000 ; qtot -0.906
    19   cd     1   UNL   C12   19     0.024417     12.01000 ; qtot -0.881
    20   c3     1   UNL   C13   20     0.058872     12.01000 ; qtot -0.822
    21   ca     1   UNL   C14   21    -0.028629     12.01000 ; qtot -0.851
    22   ca     1   UNL   C15   22    -0.057376     12.01000 ; qtot -0.909
    23   ca     1   UNL   C16   23    -0.061937     12.01000 ; qtot -0.970
    24   ca     1   UNL   C17   24    -0.062251     12.01000 ; qtot -1.033
    25   ca     1   UNL   C18   25    -0.061937     12.01000 ; qtot -1.095
    26   ca     1   UNL   C19   26    -0.057376     12.01000 ; qtot -1.152
    27   hn     1   UNL     H   27     0.174786      1.00800 ; qtot -0.977
    28   h4     1   UNL    H1   28     0.081435      1.00800 ; qtot -0.896
    29   h4     1   UNL    H2   29     0.086484      1.00800 ; qtot -0.809
    30   ha     1   UNL    H3   30     0.064679      1.00800 ; qtot -0.745
    31   ha     1   UNL    H4   31     0.065226      1.00800 ; qtot -0.679
    32   h4     1   UNL    H5   32     0.090933      1.00800 ; qtot -0.588
    33   h4     1   UNL    H6   33     0.086437      1.00800 ; qtot -0.502
    34   h4     1   UNL    H7   34     0.081676      1.00800 ; qtot -0.420
    35   h1     1   UNL    H8   35     0.054127      1.00800 ; qtot -0.366
    36   h1     1   UNL    H9   36     0.054127      1.00800 ; qtot -0.312
    37   ha     1   UNL   H10   37     0.062627      1.00800 ; qtot -0.249
    38   ha     1   UNL   H11   38     0.062284      1.00800 ; qtot -0.187
    39   ha     1   UNL   H12   39     0.062273      1.00800 ; qtot -0.125
    40   ha     1   UNL   H13   40     0.062284      1.00800 ; qtot -0.063
    41   ha     1   UNL   H14   41     0.062627      1.00800 ; qtot 0.000

[ bonds ]
;   ai     aj funct   r             k
     1      2   1    1.3803e-01    2.8075e+05 ;      N - C     
     1      5   1    1.3570e-01    2.4302e+05 ;      N - N1    
     1     27   1    1.0095e-01    4.0315e+05 ;      N - H     
     2      3   1    1.3730e-01    3.2321e+05 ;      C - C1    
     2     28   1    1.0809e-01    3.0854e+05 ;      C - H1    
     3      4   1    1.4279e-01    2.6902e+05 ;     C1 - C2    
     3      6   1    1.4610e-01    2.4166e+05 ;     C1 - C3    
     4      5   1    1.3171e-01    3.4961e+05 ;     C2 - N1    
     4     29   1    1.0818e-01    3.0735e+05 ;     C2 - H2    
     6      7   1    1.3986e-01    2.9644e+05 ;     C3 - C4    
     6     11   1    1.3392e-01    3.2341e+05 ;     C3 - N2    
     7      8   1    1.3986e-01    2.9644e+05 ;     C4 - C5    
     7     30   1    1.0860e-01    3.0183e+05 ;     C4 - H3    
     8      9   1    1.3986e-01    2.9644e+05 ;     C5 - C6    
     8     31   1    1.0860e-01    3.0183e+05 ;     C5 - H4    
     9     10   1    1.3986e-01    2.9644e+05 ;     C6 - C7    
     9     14   1    1.3688e-01    2.8731e+05 ;     C6 - O     
    10     11   1    1.3392e-01    3.2341e+05 ;     C7 - N2    
    10     12   1    1.4528e-01    2.4811e+05 ;     C7 - C8    
    12     13   1    1.3730e-01    3.2321e+05 ;     C8 - C9    
    12     15   1    1.4274e-01    2.6947e+05 ;     C8 - C10   
    13     14   1    1.3608e-01    2.9530e+05 ;     C9 - O     
    13     32   1    1.0818e-01    3.0735e+05 ;     C9 - H5    
    15     16   1    1.4274e-01    2.6947e+05 ;    C10 - C11   
    15     19   1    1.3730e-01    3.2321e+05 ;    C10 - C12   
    16     17   1    1.3158e-01    3.5122e+05 ;    C11 - N3    
    16     33   1    1.0809e-01    3.0854e+05 ;    C11 - H6    
    17     18   1    1.3570e-01    2.4302e+05 ;     N3 - N4    
    18     19   1    1.3830e-01    2.7819e+05 ;     N4 - C12   
    18     20   1    1.4639e-01    2.1321e+05 ;     N4 - C13   
    19     34   1    1.0818e-01    3.0735e+05 ;    C12 - H7    
    20     21   1    1.5147e-01    2.0410e+05 ;    C13 - C14   
    20     35   1    1.0969e-01    2.8804e+05 ;    C13 - H8    
    20     36   1    1.0969e-01    2.8804e+05 ;    C13 - H9    
    21     22   1    1.3986e-01    2.9644e+05 ;    C14 - C15   
    21     26   1    1.3986e-01    2.9644e+05 ;    C14 - C19   
    22     23   1    1.3986e-01    2.9644e+05 ;    C15 - C16   
    22     37   1    1.0860e-01    3.0183e+05 ;    C15 - H10   
    23     24   1    1.3986e-01    2.9644e+05 ;    C16 - C17   
    23     38   1    1.0860e-01    3.0183e+05 ;    C16 - H11   
    24     25   1    1.3986e-01    2.9644e+05 ;    C17 - C18   
    24     39   1    1.0860e-01    3.0183e+05 ;    C17 - H12   
    25     26   1    1.3986e-01    2.9644e+05 ;    C18 - C19   
    25     40   1    1.0860e-01    3.0183e+05 ;    C18 - H13   
    26     41   1    1.0860e-01    3.0183e+05 ;    C19 - H14   

[ pairs ]
;   ai     aj    funct
     1      6      1 ;      N - C3    
     1     29      1 ;      N - H2    
     2      7      1 ;      C - C4    
     2     11      1 ;      C - N2    
     2     29      1 ;      C - H2    
     3      8      1 ;     C1 - C5    
     3     10      1 ;     C1 - C7    
     3     30      1 ;     C1 - H3    
     4      7      1 ;     C2 - C4    
     4     11      1 ;     C2 - N2    
     4     28      1 ;     C2 - H1    
     5      6      1 ;     N1 - C3    
     5     28      1 ;     N1 - H1    
     6      9      1 ;     C3 - C6    
     6     12      1 ;     C3 - C8    
     6     28      1 ;     C3 - H1    
     6     29      1 ;     C3 - H2    
     6     31      1 ;     C3 - H4    
     7     10      1 ;     C4 - C7    
     7     14      1 ;     C4 - O     
     8     11      1 ;     C5 - N2    
     8     12      1 ;     C5 - C8    
     8     13      1 ;     C5 - C9    
     9     15      1 ;     C6 - C10   
     9     30      1 ;     C6 - H3    
     9     32      1 ;     C6 - H5    
    10     16      1 ;     C7 - C11   
    10     19      1 ;     C7 - C12   
    10     31      1 ;     C7 - H4    
    10     32      1 ;     C7 - H5    
    11     13      1 ;     N2 - C9    
    11     14      1 ;     N2 - O     
    11     15      1 ;     N2 - C10   
    11     30      1 ;     N2 - H3    
    12     17      1 ;     C8 - N3    
    12     18      1 ;     C8 - N4    
    12     33      1 ;     C8 - H6    
    12     34      1 ;     C8 - H7    
    13     16      1 ;     C9 - C11   
    13     19      1 ;     C9 - C12   
    14     15      1 ;      O - C10   
    14     31      1 ;      O - H4    
    15     20      1 ;    C10 - C13   
    15     32      1 ;    C10 - H5    
    16     20      1 ;    C11 - C13   
    16     34      1 ;    C11 - H7    
    17     21      1 ;     N3 - C14   
    17     34      1 ;     N3 - H7    
    17     35      1 ;     N3 - H8    
    17     36      1 ;     N3 - H9    
    18     22      1 ;     N4 - C15   
    18     26      1 ;     N4 - C19   
    18     33      1 ;     N4 - H6    
    19     21      1 ;    C12 - C14   
    19     33      1 ;    C12 - H6    
    19     35      1 ;    C12 - H8    
    19     36      1 ;    C12 - H9    
    20     23      1 ;    C13 - C16   
    20     25      1 ;    C13 - C18   
    20     34      1 ;    C13 - H7    
    20     37      1 ;    C13 - H10   
    20     41      1 ;    C13 - H14   
    21     24      1 ;    C14 - C17   
    21     38      1 ;    C14 - H11   
    21     40      1 ;    C14 - H13   
    22     25      1 ;    C15 - C18   
    22     35      1 ;    C15 - H8    
    22     36      1 ;    C15 - H9    
    22     39      1 ;    C15 - H12   
    22     41      1 ;    C15 - H14   
    23     26      1 ;    C16 - C19   
    23     40      1 ;    C16 - H13   
    24     37      1 ;    C17 - H10   
    24     41      1 ;    C17 - H14   
    25     38      1 ;    C18 - H11   
    26     35      1 ;    C19 - H8    
    26     36      1 ;    C19 - H9    
    26     37      1 ;    C19 - H10   
    26     39      1 ;    C19 - H12   
    27      3      1 ;      H - C1    
    27      4      1 ;      H - C2    
    27     28      1 ;      H - H1    
    30     31      1 ;     H3 - H4    
    37     38      1 ;    H10 - H11   
    38     39      1 ;    H11 - H12   
    39     40      1 ;    H12 - H13   
    40     41      1 ;    H13 - H14   

[ angles ]
;   ai     aj     ak    funct   theta         cth
     1      2      3      1    1.0675e+02    6.0927e+02 ;      N - C      - C1    
     1      2     28      1    1.2101e+02    4.0158e+02 ;      N - C      - H1    
     1      5      4      1    1.0383e+02    7.8576e+02 ;      N - N1     - C2    
     2      1      5      1    1.1457e+02    7.3103e+02 ;      C - N      - N1    
     2      1     27      1    1.2567e+02    4.6384e+02 ;      C - N      - H     
     2      3      4      1    1.1621e+02    5.4032e+02 ;      C - C1     - C2    
     2      3      6      1    1.2429e+02    5.1580e+02 ;      C - C1     - C3    
     3      2     28      1    1.2911e+02    3.6777e+02 ;     C1 - C      - H1    
     3      4      5      1    1.2070e+02    5.7287e+02 ;     C1 - C2     - N1    
     3      4     29      1    1.2675e+02    3.5949e+02 ;     C1 - C2     - H2    
     3      6      7      1    1.2083e+02    5.1898e+02 ;     C1 - C3     - C4    
     3      6     11      1    1.1734e+02    5.6928e+02 ;     C1 - C3     - N2    
     4      3      6      1    1.2486e+02    5.0568e+02 ;     C2 - C1     - C3    
     5      1     27      1    1.1959e+02    5.1229e+02 ;     N1 - N      - H     
     5      4     29      1    1.1814e+02    4.2133e+02 ;     N1 - C2     - H2    
     6      7      8      1    1.2002e+02    5.3279e+02 ;     C3 - C4     - C5    
     6      7     30      1    1.1988e+02    3.7572e+02 ;     C3 - C4     - H3    
     6     11     10      1    1.1724e+02    6.9580e+02 ;     C3 - N2     - C7    
     7      6     11      1    1.2294e+02    5.7045e+02 ;     C4 - C3     - N2    
     7      8      9      1    1.2002e+02    5.3279e+02 ;     C4 - C5     - C6    
     7      8     31      1    1.1988e+02    3.7572e+02 ;     C4 - C5     - H4    
     8      7     30      1    1.1988e+02    3.7572e+02 ;     C5 - C4     - H3    
     8      9     10      1    1.2002e+02    5.3279e+02 ;     C5 - C6     - C7    
     8      9     14      1    1.1911e+02    6.6107e+02 ;     C5 - C6     - O     
     9      8     31      1    1.1988e+02    3.7572e+02 ;     C6 - C5     - H4    
     9     10     11      1    1.2294e+02    5.7045e+02 ;     C6 - C7     - N2    
     9     10     12      1    1.2091e+02    5.2041e+02 ;     C6 - C7     - C8    
     9     14     13      1    1.1986e+02    7.5253e+02 ;     C6 - O      - C9    
    10      9     14      1    1.1911e+02    6.6107e+02 ;     C7 - C6     - O     
    10     12     13      1    1.1603e+02    5.3555e+02 ;     C7 - C8     - C9    
    10     12     15      1    1.2473e+02    5.0752e+02 ;     C7 - C8     - C10   
    11     10     12      1    1.1868e+02    5.6794e+02 ;     N2 - C7     - C8    
    12     13     14      1    1.1671e+02    6.7613e+02 ;     C8 - C9     - O     
    12     13     32      1    1.2764e+02    3.6987e+02 ;     C8 - C9     - H5    
    12     15     16      1    1.2086e+02    5.2024e+02 ;     C8 - C10    - C11   
    12     15     19      1    1.1919e+02    5.3363e+02 ;     C8 - C10    - C12   
    13     12     15      1    1.1919e+02    5.3363e+02 ;     C9 - C8     - C10   
    14     13     32      1    1.1507e+02    4.7982e+02 ;      O - C9     - H5    
    15     16     17      1    1.2605e+02    5.6091e+02 ;    C10 - C11    - N3    
    15     16     33      1    1.2688e+02    3.5941e+02 ;    C10 - C11    - H6    
    15     19     18      1    1.0899e+02    6.0241e+02 ;    C10 - C12    - N4    
    15     19     34      1    1.2764e+02    3.6987e+02 ;    C10 - C12    - H7    
    16     15     19      1    1.1919e+02    5.3363e+02 ;    C11 - C10    - C12   
    16     17     18      1    1.0384e+02    7.8609e+02 ;    C11 - N3     - N4    
    17     16     33      1    1.1836e+02    4.2133e+02 ;     N3 - C11    - H6    
    17     18     19      1    1.1221e+02    7.3789e+02 ;     N3 - N4     - C12   
    17     18     20      1    1.1987e+02    6.9162e+02 ;     N3 - N4     - C13   
    18     19     34      1    1.2017e+02    4.0233e+02 ;     N4 - C12    - H7    
    18     20     21      1    1.1310e+02    5.4685e+02 ;     N4 - C13    - C14   
    18     20     35      1    1.0876e+02    4.0250e+02 ;     N4 - C13    - H8    
    18     20     36      1    1.0876e+02    4.0250e+02 ;     N4 - C13    - H9    
    19     18     20      1    1.2550e+02    6.3170e+02 ;    C12 - N4     - C13   
    20     21     22      1    1.2083e+02    5.0827e+02 ;    C13 - C14    - C15   
    20     21     26      1    1.2083e+02    5.0827e+02 ;    C13 - C14    - C19   
    21     20     35      1    1.0960e+02    3.6660e+02 ;    C14 - C13    - H8    
    21     20     36      1    1.0960e+02    3.6660e+02 ;    C14 - C13    - H9    
    21     22     23      1    1.2002e+02    5.3279e+02 ;    C14 - C15    - C16   
    21     22     37      1    1.1988e+02    3.7572e+02 ;    C14 - C15    - H10   
    21     26     25      1    1.2002e+02    5.3279e+02 ;    C14 - C19    - C18   
    21     26     41      1    1.1988e+02    3.7572e+02 ;    C14 - C19    - H14   
    22     21     26      1    1.2002e+02    5.3279e+02 ;    C15 - C14    - C19   
    22     23     24      1    1.2002e+02    5.3279e+02 ;    C15 - C16    - C17   
    22     23     38      1    1.1988e+02    3.7572e+02 ;    C15 - C16    - H11   
    23     22     37      1    1.1988e+02    3.7572e+02 ;    C16 - C15    - H10   
    23     24     25      1    1.2002e+02    5.3279e+02 ;    C16 - C17    - C18   
    23     24     39      1    1.1988e+02    3.7572e+02 ;    C16 - C17    - H12   
    24     23     38      1    1.1988e+02    3.7572e+02 ;    C17 - C16    - H11   
    24     25     26      1    1.2002e+02    5.3279e+02 ;    C17 - C18    - C19   
    24     25     40      1    1.1988e+02    3.7572e+02 ;    C17 - C18    - H13   
    25     24     39      1    1.1988e+02    3.7572e+02 ;    C18 - C17    - H12   
    25     26     41      1    1.1988e+02    3.7572e+02 ;    C18 - C19    - H14   
    26     25     40      1    1.1988e+02    3.7572e+02 ;    C19 - C18    - H13   
    35     20     36      1    1.0855e+02    2.9824e+02 ;     H8 - C13    - H9    

[ dihedrals ] ; propers
; for gromacs 4.5 or higher, using funct 9
;    i      j      k      l   func   phase     kd      pn
     1      2      3      4      9   180.00  16.73600   2 ;      N-     C-    C1-    C2
     1      2      3      6      9   180.00  16.73600   2 ;      N-     C-    C1-    C3
     1      5      4      3      9   180.00  19.87400   2 ;      N-    N1-    C2-    C1
     1      5      4     29      9   180.00  19.87400   2 ;      N-    N1-    C2-    H2
     2      1      5      4      9   180.00  20.08320   2 ;      C-     N-    N1-    C2
     2      3      4      5      9   180.00  16.73600   2 ;      C-    C1-    C2-    N1
     2      3      4     29      9   180.00  16.73600   2 ;      C-    C1-    C2-    H2
     2      3      6      7      9   180.00  15.77368   2 ;      C-    C1-    C3-    C4
     2      3      6     11      9   180.00   6.15048   1 ;      C-    C1-    C3-    N2
     3      6      7      8      9   180.00  15.16700   2 ;     C1-    C3-    C4-    C5
     3      6      7     30      9   180.00  15.16700   2 ;     C1-    C3-    C4-    H3
     3      6     11     10      9   180.00  20.08320   2 ;     C1-    C3-    N2-    C7
     4      3      2     28      9   180.00  16.73600   2 ;     C2-    C1-     C-    H1
     4      3      6      7      9   180.00   2.44764   2 ;     C2-    C1-    C3-    C4
     4      3      6     11      9   180.00   3.13800   3 ;     C2-    C1-    C3-    N2
     4      3      6     11      9   180.00   3.43088   1 ;     C2-    C1-    C3-    N2
     4      3      6     11      9   180.00   4.18400   2 ;     C2-    C1-    C3-    N2
     5      1      2      3      9   180.00   7.11280   2 ;     N1-     N-     C-    C1
     5      1      2     28      9   180.00   7.11280   2 ;     N1-     N-     C-    H1
     5      4      3      6      9   180.00  16.73600   2 ;     N1-    C2-    C1-    C3
     6      3      2     28      9   180.00  16.73600   2 ;     C3-    C1-     C-    H1
     6      3      4     29      9   180.00  16.73600   2 ;     C3-    C1-    C2-    H2
     6      7      8      9      9   180.00  15.16700   2 ;     C3-    C4-    C5-    C6
     6      7      8     31      9   180.00  15.16700   2 ;     C3-    C4-    C5-    H4
     6     11     10      9      9   180.00  20.08320   2 ;     C3-    N2-    C7-    C6
     6     11     10     12      9   180.00  20.08320   2 ;     C3-    N2-    C7-    C8
     7      6     11     10      9   180.00  20.08320   2 ;     C4-    C3-    N2-    C7
     7      8      9     10      9   180.00  15.16700   2 ;     C4-    C5-    C6-    C7
     7      8      9     14      9   180.00  15.16700   2 ;     C4-    C5-    C6-     O
     8      7      6     11      9   180.00  15.16700   2 ;     C5-    C4-    C3-    N2
     8      9     10     11      9   180.00  15.16700   2 ;     C5-    C6-    C7-    N2
     8      9     10     12      9   180.00  15.16700   2 ;     C5-    C6-    C7-    C8
     8      9     14     13      9   180.00   3.76560   2 ;     C5-    C6-     O-    C9
     9      8      7     30      9   180.00  15.16700   2 ;     C6-    C5-    C4-    H3
     9     10     12     13      9   180.00   2.44764   2 ;     C6-    C7-    C8-    C9
     9     10     12     15      9   180.00  15.77368   2 ;     C6-    C7-    C8-   C10
     9     14     13     12      9   180.00   2.71960   1 ;     C6-     O-    C9-    C8
     9     14     13     32      9   180.00   4.39320   2 ;     C6-     O-    C9-    H5
    10      9      8     31      9   180.00  15.16700   2 ;     C7-    C6-    C5-    H4
    10      9     14     13      9   180.00   3.76560   2 ;     C7-    C6-     O-    C9
    10     12     13     14      9   180.00  16.73600   2 ;     C7-    C8-    C9-     O
    10     12     13     32      9   180.00  16.73600   2 ;     C7-    C8-    C9-    H5
    10     12     15     16      9   180.00  16.73600   2 ;     C7-    C8-   C10-   C11
    10     12     15     19      9   180.00  16.73600   2 ;     C7-    C8-   C10-   C12
    11      6      7     30      9   180.00  15.16700   2 ;     N2-    C3-    C4-    H3
    11     10      9     14      9   180.00  15.16700   2 ;     N2-    C7-    C6-     O
    11     10     12     13      9   180.00   3.13800   3 ;     N2-    C7-    C8-    C9
    11     10     12     13      9   180.00   3.43088   1 ;     N2-    C7-    C8-    C9
    11     10     12     13      9   180.00   4.18400   2 ;     N2-    C7-    C8-    C9
    11     10     12     15      9   180.00   6.15048   1 ;     N2-    C7-    C8-   C10
    12     10      9     14      9   180.00  15.16700   2 ;     C8-    C7-    C6-     O
    12     15     16     17      9   180.00  16.73600   2 ;     C8-   C10-   C11-    N3
    12     15     16     33      9   180.00  16.73600   2 ;     C8-   C10-   C11-    H6
    12     15     19     18      9   180.00  16.73600   2 ;     C8-   C10-   C12-    N4
    12     15     19     34      9   180.00  16.73600   2 ;     C8-   C10-   C12-    H7
    13     12     15     16      9   180.00  16.73600   2 ;     C9-    C8-   C10-   C11
    13     12     15     19      9   180.00  16.73600   2 ;     C9-    C8-   C10-   C12
    14      9      8     31      9   180.00  15.16700   2 ;      O-    C6-    C5-    H4
    14     13     12     15      9   180.00  16.73600   2 ;      O-    C9-    C8-   C10
    15     12     13     32      9   180.00  16.73600   2 ;    C10-    C8-    C9-    H5
    15     16     17     18      9   180.00  19.87400   2 ;    C10-   C11-    N3-    N4
    15     19     18     17      9   180.00   7.11280   2 ;    C10-   C12-    N4-    N3
    15     19     18     20      9   180.00   7.11280   2 ;    C10-   C12-    N4-   C13
    16     15     19     18      9   180.00  16.73600   2 ;    C11-   C10-   C12-    N4
    16     15     19     34      9   180.00  16.73600   2 ;    C11-   C10-   C12-    H7
    16     17     18     19      9   180.00  20.08320   2 ;    C11-    N3-    N4-   C12
    16     17     18     20      9   180.00  20.08320   2 ;    C11-    N3-    N4-   C13
    17     16     15     19      9   180.00  16.73600   2 ;     N3-   C11-   C10-   C12
    17     18     19     34      9   180.00   7.11280   2 ;     N3-    N4-   C12-    H7
    17     18     20     21      9     0.00   0.00000   0 ;     N3-    N4-   C13-   C14
    17     18     20     35      9     0.00   0.00000   0 ;     N3-    N4-   C13-    H8
    17     18     20     36      9     0.00   0.00000   0 ;     N3-    N4-   C13-    H9
    18     17     16     33      9   180.00  19.87400   2 ;     N4-    N3-   C11-    H6
    18     20     21     22      9   180.00   1.23428   2 ;     N4-   C13-   C14-   C15
    18     20     21     26      9   180.00   1.23428   2 ;     N4-   C13-   C14-   C19
    19     15     16     33      9   180.00  16.73600   2 ;    C12-   C10-   C11-    H6
    19     18     20     21      9     0.00   0.00000   0 ;    C12-    N4-   C13-   C14
    19     18     20     35      9     0.00   0.00000   0 ;    C12-    N4-   C13-    H8
    19     18     20     36      9     0.00   0.00000   0 ;    C12-    N4-   C13-    H9
    20     18     19     34      9   180.00   7.11280   2 ;    C13-    N4-   C12-    H7
    20     21     22     23      9   180.00  15.16700   2 ;    C13-   C14-   C15-   C16
    20     21     22     37      9   180.00  15.16700   2 ;    C13-   C14-   C15-   H10
    20     21     26     25      9   180.00  15.16700   2 ;    C13-   C14-   C19-   C18
    20     21     26     41      9   180.00  15.16700   2 ;    C13-   C14-   C19-   H14
    21     22     23     24      9   180.00  15.16700   2 ;    C14-   C15-   C16-   C17
    21     22     23     38      9   180.00  15.16700   2 ;    C14-   C15-   C16-   H11
    21     26     25     24      9   180.00  15.16700   2 ;    C14-   C19-   C18-   C17
    21     26     25     40      9   180.00  15.16700   2 ;    C14-   C19-   C18-   H13
    22     21     20     35      9     0.00   0.00000   0 ;    C15-   C14-   C13-    H8
    22     21     20     36      9     0.00   0.00000   0 ;    C15-   C14-   C13-    H9
    22     21     26     25      9   180.00  15.16700   2 ;    C15-   C14-   C19-   C18
    22     21     26     41      9   180.00  15.16700   2 ;    C15-   C14-   C19-   H14
    22     23     24     25      9   180.00  15.16700   2 ;    C15-   C16-   C17-   C18
    22     23     24     39      9   180.00  15.16700   2 ;    C15-   C16-   C17-   H12
    23     22     21     26      9   180.00  15.16700   2 ;    C16-   C15-   C14-   C19
    23     24     25     26      9   180.00  15.16700   2 ;    C16-   C17-   C18-   C19
    23     24     25     40      9   180.00  15.16700   2 ;    C16-   C17-   C18-   H13
    24     23     22     37      9   180.00  15.16700   2 ;    C17-   C16-   C15-   H10
    24     25     26     41      9   180.00  15.16700   2 ;    C17-   C18-   C19-   H14
    25     24     23     38      9   180.00  15.16700   2 ;    C18-   C17-   C16-   H11
    26     21     20     35      9     0.00   0.00000   0 ;    C19-   C14-   C13-    H8
    26     21     20     36      9     0.00   0.00000   0 ;    C19-   C14-   C13-    H9
    26     21     22     37      9   180.00  15.16700   2 ;    C19-   C14-   C15-   H10
    26     25     24     39      9   180.00  15.16700   2 ;    C19-   C18-   C17-   H12
    27      1      2      3      9   180.00   7.11280   2 ;      H-     N-     C-    C1
    27      1      2     28      9   180.00   7.11280   2 ;      H-     N-     C-    H1
    27      1      5      4      9   180.00  20.08320   2 ;      H-     N-    N1-    C2
    30      7      8     31      9   180.00  15.16700   2 ;     H3-    C4-    C5-    H4
    37     22     23     38      9   180.00  15.16700   2 ;    H10-   C15-   C16-   H11
    38     23     24     39      9   180.00  15.16700   2 ;    H11-   C16-   C17-   H12
    39     24     25     40      9   180.00  15.16700   2 ;    H12-   C17-   C18-   H13
    40     25     26     41      9   180.00  15.16700   2 ;    H13-   C18-   C19-   H14

[ dihedrals ] ; impropers
; treated as propers in GROMACS to use correct AMBER analytical function
;    i      j      k      l   func   phase     kd      pn
     1      2     28      3      4   180.00   4.60240   2 ;      N-     C-    H1-    C1
     3     29      4      5      4   180.00   4.60240   2 ;     C1-    H2-    C2-    N1
     5      1     27      2      4   180.00   4.60240   2 ;     N1-     N-     H-     C
     6      2      3      4      4   180.00   4.60240   2 ;     C3-     C-    C1-    C2
     6      8      7     30      4   180.00   4.60240   2 ;     C3-    C5-    C4-    H3
     7      3      6     11      4   180.00   4.60240   2 ;     C4-    C1-    C3-    N2
     7      9      8     31      4   180.00   4.60240   2 ;     C4-    C6-    C5-    H4
     8     10      9     14      4   180.00   4.60240   2 ;     C5-    C7-    C6-     O
     9     12     10     11      4   180.00   4.60240   2 ;     C6-    C8-    C7-    N2
    10     15     12     13      4   180.00   4.60240   2 ;     C7-   C10-    C8-    C9
    12     16     15     19      4   180.00   4.60240   2 ;     C8-   C11-   C10-   C12
    12     32     13     14      4   180.00   4.60240   2 ;     C8-    H5-    C9-     O
    15     33     16     17      4   180.00   4.60240   2 ;    C10-    H6-   C11-    N3
    15     34     19     18      4   180.00   4.60240   2 ;    C10-    H7-   C12-    N4
    20     19     18     17      4   180.00   4.60240   2 ;    C13-   C12-    N4-    N3
    21     23     22     37      4   180.00   4.60240   2 ;    C14-   C16-   C15-   H10
    21     25     26     41      4   180.00   4.60240   2 ;    C14-   C18-   C19-   H14
    22     24     23     38      4   180.00   4.60240   2 ;    C15-   C17-   C16-   H11
    22     26     21     20      4   180.00   4.60240   2 ;    C15-   C19-   C14-   C13
    23     25     24     39      4   180.00   4.60240   2 ;    C16-   C18-   C17-   H12
    24     26     25     40      4   180.00   4.60240   2 ;    C17-   C19-   C18-   H13
