mut_GMX.gro created by acpype (v: 2023.10.27) on Sun Aug 23 14:33:46 2026
 41
    1  UNL    N    1   2.268   4.195   0.696
    1  UNL    C    2   2.226   4.325   0.690
    1  UNL   C1    3   2.170   4.353   0.812
    1  UNL   C2    4   2.184   4.232   0.885
    1  UNL   N1    5   2.244   4.136   0.814
    1  UNL   C3    6   2.111   4.479   0.855
    1  UNL   C4    7   2.106   4.591   0.770
    1  UNL   C5    8   2.049   4.710   0.814
    1  UNL   C6    9   1.999   4.707   0.944
    1  UNL   C7   10   2.006   4.594   1.024
    1  UNL   N2   11   2.062   4.478   0.981
    1  UNL   C8   12   1.945   4.630   1.147
    1  UNL   C9   13   1.906   4.762   1.133
    1  UNL    O   14   1.938   4.809   1.010
    1  UNL  C10   15   1.927   4.546   1.264
    1  UNL  C11   16   1.964   4.410   1.277
    1  UNL   N3   17   1.934   4.361   1.398
    1  UNL   N4   18   1.877   4.465   1.462
    1  UNL  C12   19   1.872   4.579   1.386
    1  UNL  C13   20   1.832   4.451   1.599
    1  UNL  C14   21   1.682   4.456   1.611
    1  UNL  C15   22   1.619   4.560   1.680
    1  UNL  C16   23   1.479   4.565   1.690
    1  UNL  C17   24   1.402   4.464   1.632
    1  UNL  C18   25   1.463   4.359   1.564
    1  UNL  C19   26   1.602   4.355   1.553
    1  UNL    H   27   2.314   4.140   0.624
    1  UNL   H1   28   2.241   4.383   0.600
    1  UNL   H2   29   2.152   4.211   0.986
    1  UNL   H3   30   2.147   4.587   0.670
    1  UNL   H4   31   2.043   4.799   0.753
    1  UNL   H5   32   1.856   4.832   1.198
    1  UNL   H6   33   2.011   4.345   1.205
    1  UNL   H7   34   1.829   4.670   1.424
    1  UNL   H8   35   1.870   4.355   1.639
    1  UNL   H9   36   1.880   4.531   1.657
    1  UNL  H10   37   1.677   4.640   1.726
    1  UNL  H11   38   1.431   4.646   1.743
    1  UNL  H12   39   1.294   4.468   1.640
    1  UNL  H13   40   1.403   4.281   1.519
    1  UNL  H14   41   1.649   4.273   1.499
   20.41600    13.92600    22.87600
