; mut_GMX_OPLS.top created by acpype (v: 2023.10.27) on Sun Aug 23 14:33:46 2026

; Include forcefield parameters
#include "ffoplsaa.itp"

; Include mut_GMX.itp topology
#include "mut_GMX.itp"

; Ligand position restraints
#ifdef POSRES_LIG
#include "posre_mut.itp"
#endif

[ system ]
 mut

[ molecules ]
; Compound        nmols
 mut              1     
