%VERSION  VERSION_STAMP = V0001.000  DATE = 08/23/26  14:33:46                  
%FLAG TITLE                                                                     
%FORMAT(20a4)                                                                   
*****                                                                           
%FLAG POINTERS                                                                  
%FORMAT(10I8)                                                                   
      41       9      15      30      31      42      63      70       0       0
     213       1      30      42      70      22      44      17      13       0
       0       0       0       0       0       0       0       0      41       0
       0
%FLAG ATOM_NAME                                                                 
%FORMAT(20a4)                                                                   
N   C   C1  C2  N1  C3  C4  C5  C6  C7  N2  C8  C9  O   C10 C11 N3  N4  C12 C13 
C14 C15 C16 C17 C18 C19 H   H1  H2  H3  H4  H5  H6  H7  H8  H9  H10 H11 H12 H13 
H14 
%FLAG CHARGE                                                                    
%FORMAT(5E16.8)                                                                 
 -4.46814440E+00  4.04425726E-01  6.46836983E-01  1.01512789E+00 -3.50176117E+00
  1.34930665E+00 -6.00898565E-01 -4.89122977E-01  1.96155771E+00  1.90215301E+00
 -4.46081904E+00  6.64476169E-01  1.02372881E+00 -5.74259384E+00  3.93474124E-01
  9.94281577E-01 -3.44669338E+00 -4.15087594E+00  4.44933899E-01  1.07278325E+00
 -5.21686227E-01 -1.04552268E+00 -1.12863460E+00 -1.13435640E+00 -1.12863460E+00
 -1.04552268E+00  3.18500293E+00  1.48393300E+00  1.57593739E+00  1.17860014E+00
  1.18856774E+00  1.65700841E+00  1.57508095E+00  1.48832457E+00  9.86318432E-01
  9.86318432E-01  1.14120798E+00  1.13495773E+00  1.13475729E+00  1.13495773E+00
  1.14120798E+00
%FLAG ATOMIC_NUMBER                                                             
%FORMAT(10I8)                                                                   
       7       6       6       6       7       6       6       6       6       6
       7       6       6       8       6       6       7       7       6       6
       6       6       6       6       6       6       1       1       1       1
       1       1       1       1       1       1       1       1       1       1
       1
%FLAG MASS                                                                      
%FORMAT(5E16.8)                                                                 
  1.40100000E+01  1.20100000E+01  1.20100000E+01  1.20100000E+01  1.40100000E+01
  1.20100000E+01  1.20100000E+01  1.20100000E+01  1.20100000E+01  1.20100000E+01
  1.40100000E+01  1.20100000E+01  1.20100000E+01  1.60000000E+01  1.20100000E+01
  1.20100000E+01  1.40100000E+01  1.40100000E+01  1.20100000E+01  1.20100000E+01
  1.20100000E+01  1.20100000E+01  1.20100000E+01  1.20100000E+01  1.20100000E+01
  1.20100000E+01  1.00800000E+00  1.00800000E+00  1.00800000E+00  1.00800000E+00
  1.00800000E+00  1.00800000E+00  1.00800000E+00  1.00800000E+00  1.00800000E+00
  1.00800000E+00  1.00800000E+00  1.00800000E+00  1.00800000E+00  1.00800000E+00
  1.00800000E+00
%FLAG ATOM_TYPE_INDEX                                                           
%FORMAT(10I8)                                                                   
       1       2       2       2       3       2       2       2       2       2
       3       2       2       4       2       2       3       1       2       5
       2       2       2       2       2       2       6       7       7       8
       8       7       7       7       9       9       8       8       8       8
       8
%FLAG NUMBER_EXCLUDED_ATOMS                                                     
%FORMAT(10I8)                                                                   
       8       9      11       7       4      10       7       8       9       9
       5      10       5       3       8       6       8       9       6      10
      11      10       7       7       5       6       1       1       1       1
       1       1       1       1       1       1       1       1       1       1
       1
%FLAG NONBONDED_PARM_INDEX                                                      
%FORMAT(10I8)                                                                   
       1       2       4       7      11      16      22      29      37       2
       3       5       8      12      17      23      30      38       4       5
       6       9      13      18      24      31      39       7       8       9
      10      14      19      25      32      40      11      12      13      14
      15      20      26      33      41      16      17      18      19      20
      21      27      34      42      22      23      24      25      26      27
      28      35      43      29      30      31      32      33      34      35
      36      44      37      38      39      40      41      42      43      44
      45
%FLAG RESIDUE_LABEL                                                             
%FORMAT(20a4)                                                                   
UNL 
%FLAG RESIDUE_POINTER                                                           
%FORMAT(10I8)                                                                   
       1
%FLAG BOND_FORCE_CONSTANT                                                       
%FORMAT(5E16.8)                                                                 
  3.35500000E+02  2.90410000E+02  4.81770000E+02  3.86240000E+02  3.68720000E+02
  3.21490000E+02  2.88790000E+02  4.17790000E+02  3.67290000E+02  3.54250000E+02
  3.86490000E+02  3.60690000E+02  3.43340000E+02  2.96500000E+02  3.22020000E+02
  3.52890000E+02  4.19720000E+02  2.90410000E+02  3.32450000E+02  2.54790000E+02
  2.43910000E+02  3.44220000E+02
%FLAG BOND_EQUIL_VALUE                                                          
%FORMAT(5E16.8)                                                                 
  1.38030000E+00  1.35700000E+00  1.00950000E+00  1.37300000E+00  1.08090000E+00
  1.42790000E+00  1.46100000E+00  1.31710000E+00  1.08180000E+00  1.39860000E+00
  1.33920000E+00  1.08600000E+00  1.36880000E+00  1.45280000E+00  1.42740000E+00
  1.36080000E+00  1.31580000E+00  1.35700000E+00  1.38300000E+00  1.46390000E+00
  1.51470000E+00  1.09690000E+00
%FLAG ANGLE_FORCE_CONSTANT                                                      
%FORMAT(5E16.8)                                                                 
  7.28100000E+01  4.79900000E+01  9.39000000E+01  8.73600000E+01  5.54300000E+01
  6.45700000E+01  6.16400000E+01  4.39500000E+01  6.84600000E+01  4.29600000E+01
  6.20200000E+01  6.80300000E+01  6.04300000E+01  5.03500000E+01  6.12200000E+01
  6.36700000E+01  4.49000000E+01  8.31500000E+01  6.81700000E+01  7.90000000E+01
  6.21900000E+01  8.99300000E+01  6.40000000E+01  6.06500000E+01  6.78700000E+01
  8.08000000E+01  4.42000000E+01  6.21700000E+01  6.37700000E+01  5.73400000E+01
  6.70300000E+01  4.29500000E+01  7.19900000E+01  9.39400000E+01  5.03500000E+01
  8.81800000E+01  8.26500000E+01  4.80800000E+01  6.53500000E+01  4.81000000E+01
  7.54900000E+01  6.07400000E+01  4.38100000E+01  3.56400000E+01
%FLAG ANGLE_EQUIL_VALUE                                                         
%FORMAT(5E16.8)                                                                 
  1.86313978E+00  2.11202383E+00  1.81217614E+00  1.99962458E+00  2.19335621E+00
  2.02824799E+00  2.16927066E+00  2.25339556E+00  2.10661331E+00  2.21220578E+00
  2.10888224E+00  2.04797022E+00  2.17921904E+00  2.06193286E+00  2.08724015E+00
  2.09474507E+00  2.09230160E+00  2.04622489E+00  2.14570870E+00  2.07886256E+00
  2.11027850E+00  2.09195254E+00  2.02510640E+00  2.17695011E+00  2.07135764E+00
  2.03697464E+00  2.22773921E+00  2.10940584E+00  2.08025883E+00  2.00835123E+00
  2.19998847E+00  2.21447470E+00  1.90223517E+00  1.81235067E+00  2.06577259E+00
  1.95843479E+00  2.09212707E+00  2.09736306E+00  1.97396823E+00  1.89822091E+00
  2.19038915E+00  2.10888224E+00  1.91288168E+00  1.89455572E+00
%FLAG DIHEDRAL_FORCE_CONSTANT                                                   
%FORMAT(5E16.8)                                                                 
  4.00000000E+00  4.75000000E+00  4.80000000E+00  3.77000000E+00  1.47000000E+00
  1.70000000E+00  3.62500000E+00  5.85000000E-01  8.20000000E-01  1.00000000E+00
  7.50000000E-01  9.00000000E-01  6.50000000E-01  1.05000000E+00  0.00000000E+00
  2.95000000E-01  1.10000000E+00
%FLAG DIHEDRAL_PERIODICITY                                                      
%FORMAT(5E16.8)                                                                 
  2.00000000E+00  2.00000000E+00  2.00000000E+00  2.00000000E+00  1.00000000E+00
  2.00000000E+00  2.00000000E+00  2.00000000E+00  1.00000000E+00  2.00000000E+00
  3.00000000E+00  2.00000000E+00  1.00000000E+00  2.00000000E+00  2.00000000E+00
  2.00000000E+00  2.00000000E+00
%FLAG DIHEDRAL_PHASE                                                            
%FORMAT(5E16.8)                                                                 
  3.14159400E+00  3.14159400E+00  3.14159400E+00  3.14159400E+00  3.14159400E+00
  3.14159400E+00  3.14159400E+00  3.14159400E+00  3.14159400E+00  3.14159400E+00
  3.14159400E+00  3.14159400E+00  3.14159400E+00  3.14159400E+00  0.00000000E+00
  3.14159400E+00  3.14159400E+00
%FLAG SCEE_SCALE_FACTOR                                                         
%FORMAT(5E16.8)                                                                 
  1.20000000E+00  1.20000000E+00  1.20000000E+00  1.20000000E+00  1.20000000E+00
  1.20000000E+00  1.20000000E+00  1.20000000E+00  1.20000000E+00  1.20000000E+00
  1.20000000E+00  1.20000000E+00  1.20000000E+00  1.20000000E+00  1.20000000E+00
  1.20000000E+00  0.00000000E+00
%FLAG SCNB_SCALE_FACTOR                                                         
%FORMAT(5E16.8)                                                                 
  2.00000000E+00  2.00000000E+00  2.00000000E+00  2.00000000E+00  2.00000000E+00
  2.00000000E+00  2.00000000E+00  2.00000000E+00  2.00000000E+00  2.00000000E+00
  2.00000000E+00  2.00000000E+00  2.00000000E+00  2.00000000E+00  2.00000000E+00
  2.00000000E+00  0.00000000E+00
%FLAG SOLTY                                                                     
%FORMAT(5E16.8)                                                                 
  0.00000000E+00  0.00000000E+00  0.00000000E+00  0.00000000E+00  0.00000000E+00
  0.00000000E+00  0.00000000E+00  0.00000000E+00  0.00000000E+00  0.00000000E+00
  0.00000000E+00  0.00000000E+00  0.00000000E+00
%FLAG LENNARD_JONES_ACOEF                                                       
%FORMAT(5E16.8)                                                                 
  9.62429652E+05  8.20152428E+05  6.96551276E+05  9.08092643E+05  7.69642101E+05
  8.49322032E+05  5.22690526E+05  4.46121722E+05  4.94433451E+05  2.83662575E+05
  9.96191545E+05  8.43969952E+05  9.31115275E+05  5.42502534E+05  1.02073671E+06
  1.82491629E+03  1.71458823E+03  2.01475241E+03  9.46795083E+02  2.23577481E+03
  1.34728399E-01  7.19580450E+04  6.27751680E+04  7.05112106E+04  3.86549715E+04
  7.75673747E+04  6.76796831E+01  4.56536476E+03  8.65595848E+04  7.52549148E+04
  8.43518904E+04  4.65732396E+04  9.27554496E+04  9.04434904E+01  5.62610481E+03
  6.90855956E+03  6.42436358E+04  5.63013422E+04  6.34160397E+04  3.44374471E+04
  6.97998263E+04  5.24570081E+01  3.94664935E+03  4.88692384E+03  3.39005767E+03
%FLAG LENNARD_JONES_BCOEF                                                       
%FORMAT(5E16.8)                                                                 
  8.86629877E+02  6.82622272E+02  5.24668528E+02  7.09588248E+02  5.44830041E+02
  5.65406768E+02  5.04545572E+02  3.88758656E+02  4.04310927E+02  2.87011518E+02
  7.68900328E+02  5.90251928E+02  6.12468585E+02  4.38146883E+02  6.63431737E+02
  1.81620725E+01  1.46824710E+01  1.57231024E+01  1.01016461E+01  1.71355763E+01
  7.34107347E-02  1.28466555E+02  1.00073628E+02  1.04776275E+02  7.27065100E+01
  1.13692208E+02  1.85338491E+00  1.71467049E+01  1.40899023E+02  1.09570372E+02
  1.14599119E+02  7.98066064E+01  1.24325688E+02  2.14252117E+00  1.90347353E+01
  2.10929191E+01  1.29412081E+02  1.01040256E+02  1.05935811E+02  7.31636661E+01
  1.14981426E+02  1.73959275E+00  1.69967767E+01  1.89134207E+01  1.67944276E+01
%FLAG BONDS_INC_HYDROGEN                                                        
%FORMAT(10I8)                                                                   
       0      78       3       3      81       5       9      84       9      18
      87      12      21      90      12      36      93       9      45      96
       5      54      99       9      57     102      22      57     105      22
      63     108      12      66     111      12      69     114      12      72
     117      12      75     120      12
%FLAG BONDS_WITHOUT_HYDROGEN                                                    
%FORMAT(10I8)                                                                   
       0       3       1       0      12       2       3       6       4       6
       9       6       6      15       7       9      12       8      15      18
      10      15      30      11      18      21      10      21      24      10
      24      27      10      24      39      13      27      30      11      27
      33      14      33      36       4      33      42      15      36      39
      16      42      45      15      42      54       4      45      48      17
      48      51      18      51      54      19      51      57      20      57
      60      21      60      63      10      60      75      10      63      66
      10      66      69      10      69      72      10      72      75      10
%FLAG ANGLES_INC_HYDROGEN                                                       
%FORMAT(10I8)                                                                   
       0       3      81       2       3       0      78       5       6       3
      81       8       6       9      84      10      12       9      84      14
      12       0      78      15      15      18      87      17      18      21
      90      17      21      18      87      17      24      21      90      17
      33      36      93      27      39      36      93      30      42      45
      96      32      42      54      99      27      48      45      96      35
      51      54      99      38      51      57     102      40      51      57
     105      40      60      57     102      43      60      57     105      43
      60      63     108      17      60      75     120      17      63      66
     111      17      66      63     108      17      66      69     114      17
      69      66     111      17      69      72     117      17      72      69
     114      17      72      75     120      17      75      72     117      17
     102      57     105      44
%FLAG ANGLES_WITHOUT_HYDROGEN                                                   
%FORMAT(10I8)                                                                   
       0       3       6       1       0      12       9       3       3       0
      12       4       3       6       9       6       3       6      15       7
       6       9      12       9       6      15      18      11       6      15
      30      12       9       6      15      13      15      18      21      16
      15      30      27      18      18      15      30      19      18      21
      24      16      21      24      27      16      21      24      39      20
      24      27      30      19      24      27      33      21      24      39
      36      22      27      24      39      20      27      33      36      23
      27      33      42      24      30      27      33      25      33      36
      39      26      33      42      45      28      33      42      54      29
      36      33      42      29      42      45      48      31      42      54
      51      33      45      42      54      29      45      48      51      34
      48      51      54      36      48      51      57      37      51      57
      60      39      54      51      57      41      57      60      63      42
      57      60      75      42      60      63      66      16      60      75
      72      16      63      60      75      16      63      66      69      16
      66      69      72      16      69      72      75      16
%FLAG DIHEDRALS_INC_HYDROGEN                                                    
%FORMAT(10I8)                                                                   
       0      12       9      84       2       3       6       9      84       1
      78       0       3       6       6       6      15      18      87       7
       9       6       3      81       1      78       0      12       9       3
      12       0       3      81       6      15       6       3      81       1
      15       6       9      84       1      15      18      21      90       7
      24      21      18      87       7      24      39      36      93      14
      27      24      21      90       7      27      33      36      93       1
      30      15      18      87       7      33      42      45      96       1
      33      42      54      99       1      39      24      21      90       7
      42      33      36      93       1      45      42      54      99       1
      48      51      54      99       6      48      51      57     102      15
      48      51      57     105      15      51      48      45      96       2
      54      51      57     102      15      54      51      57     105      15
      54      42      45      96       1      57      51      54      99       6
      57      60      63     108       7      57      60      75     120       7
      60      63      66     111       7      60      75      72     117       7
      63      60      57     102      15      63      60      57     105      15
      63      60      75     120       7      63      66      69     114       7
      66      69      72     117       7      69      66      63     108       7
      69      72      75     120       7      72      69      66     111       7
      75      72      69     114       7      75      60      57     102      15
      75      60      57     105      15      75      60      63     108       7
      78       0       3      81       6      87      18      21      90       7
     108      63      66     111       7     111      66      69     114       7
     114      69      72     117       7     117      72      75     120       7
      12       0     -78      -3      17       0       3     -81      -6      17
       6      84      -9     -12      17      15      21     -18     -87      17
      18      24     -21     -90      17      33      93     -36     -39      17
      42      96     -45     -48      17      42      99     -54     -51      17
      60      66     -63    -108      17      63      69     -66    -111      17
      66      72     -69    -114      17      69      75     -72    -117      17
      60      72     -75    -120      17
%FLAG DIHEDRALS_WITHOUT_HYDROGEN                                                
%FORMAT(10I8)                                                                   
       0       3      -6       9       1       0       3       6      15       1
       0      12      -9       6       2       3       0     -12       9       3
       3       6      -9      12       1       3       6      15      18       4
       3       6      15      30       5      12       0      -3       6       6
       6      15      18      21       7       6      15      30      27       3
       9       6      15      18       8       9       6      15      30       9
       9       6     -15      30      10       9       6     -15      30      11
      12       9       6      15       1      15      18      21      24       7
      15      30     -27      24       3      15      30      27      33       3
      18      15      30      27       3      18      21     -24      27       7
      18      21      24      39       7      21      18      15      30       7
      21      24     -27      30       7      21      24      27      33       7
      21      24      39      36      12      24      27     -33      36       8
      24      27      33      42       4      24      39     -36      33      13
      27      24     -39      36      12      27      33     -36      39       1
      27      33      42      45       1      27      33      42      54       1
      30      27      24      39       7      30      27      33      36       9
      30      27     -33      36      10      30      27     -33      36      11
      30      27      33      42       5      33      27     -24      39       7
      33      42      45      48       1      33      42      54      51       1
      36      33      42      45       1      36      33      42      54       1
      39      36      33      42       1      42      45     -48      51       2
      42      54     -51      48       6      42      54      51      57       6
      45      42     -54      51       1      45      48     -51      54       3
      45      48      51      57       3      48      45     -42      54       1
      48      51      57      60      15      51      57      60      63      16
      51      57      60      75      16      54      51      57      60      15
      57      60      63      66       7      57      60      75      72       7
      60      63      66      69       7      60      75     -72      69       7
      63      60      75      72       7      63      66     -69      72       7
      66      63      60      75       7      66      69     -72      75       7
      15       3      -6      -9      17      18       6     -15     -30      17
      21      27     -24     -39      17      24      33     -27     -30      17
      27      42     -33     -36      17      33      45     -42     -54      17
      57      54     -51     -48      17      63      75     -60     -57      17
%FLAG EXCLUDED_ATOMS_LIST                                                       
%FORMAT(10I8)                                                                   
       2       3       4       5       6      27      28      29       3       4
       5       6       7      11      27      28      29       4       5       6
       7       8      10      11      27      28      29      30       5       6
       7      11      27      28      29       6      27      28      29       7
       8       9      10      11      12      28      29      30      31       8
       9      10      11      14      30      31       9      10      11      12
      13      14      30      31      10      11      12      13      14      15
      30      31      32      11      12      13      14      15      16      19
      31      32      12      13      14      15      30      13      14      15
      16      17      18      19      32      33      34      14      15      16
      19      32      15      31      32      16      17      18      19      20
      32      33      34      17      18      19      20      33      34      18
      19      20      21      33      34      35      36      19      20      21
      22      26      33      34      35      36      20      21      33      34
      35      36      21      22      23      25      26      34      35      36
      37      41      22      23      24      25      26      35      36      37
      38      40      41      23      24      25      26      35      36      37
      38      39      41      24      25      26      37      38      39      40
      25      26      37      38      39      40      41      26      38      39
      40      41      35      36      37      39      40      41      28       0
       0      31       0       0       0       0      36       0      38      39
      40      41       0
%FLAG HBOND_ACOEF                                                               
%FORMAT(5E16.8)                                                                 

%FLAG HBOND_BCOEF                                                               
%FORMAT(5E16.8)                                                                 

%FLAG HBCUT                                                                     
%FORMAT(5E16.8)                                                                 

%FLAG AMBER_ATOM_TYPE                                                           
%FORMAT(20a4)                                                                   
na  cc  cd  cd  nc  ca  ca  ca  ca  ca  nb  cc  cd  os  cc  cc  nd  na  cd  c3  
ca  ca  ca  ca  ca  ca  hn  h4  h4  ha  ha  h4  h4  h4  h1  h1  ha  ha  ha  ha  
ha  
%FLAG TREE_CHAIN_CLASSIFICATION                                                 
%FORMAT(20a4)                                                                   
BLA BLA BLA BLA BLA BLA BLA BLA BLA BLA BLA BLA BLA BLA BLA BLA BLA BLA BLA BLA 
BLA BLA BLA BLA BLA BLA BLA BLA BLA BLA BLA BLA BLA BLA BLA BLA BLA BLA BLA BLA 
BLA 
%FLAG JOIN_ARRAY                                                                
%FORMAT(10I8)                                                                   
       0       0       0       0       0       0       0       0       0       0
       0       0       0       0       0       0       0       0       0       0
       0       0       0       0       0       0       0       0       0       0
       0       0       0       0       0       0       0       0       0       0
       0
%FLAG IROTAT                                                                    
%FORMAT(10I8)                                                                   
       0       0       0       0       0       0       0       0       0       0
       0       0       0       0       0       0       0       0       0       0
       0       0       0       0       0       0       0       0       0       0
       0       0       0       0       0       0       0       0       0       0
       0
%FLAG RADIUS_SET                                                                
%FORMAT(1a80)                                                                   
modified Bondi radii (mbondi)                                                   
%FLAG RADII                                                                     
%FORMAT(5E16.8)                                                                 
  1.55000000E+00  1.70000000E+00  1.70000000E+00  1.70000000E+00  1.55000000E+00
  1.70000000E+00  1.70000000E+00  1.70000000E+00  1.70000000E+00  1.70000000E+00
  1.55000000E+00  1.70000000E+00  1.70000000E+00  1.50000000E+00  1.70000000E+00
  1.70000000E+00  1.55000000E+00  1.55000000E+00  1.70000000E+00  1.70000000E+00
  1.70000000E+00  1.70000000E+00  1.70000000E+00  1.70000000E+00  1.70000000E+00
  1.70000000E+00  1.30000000E+00  1.30000000E+00  1.30000000E+00  1.30000000E+00
  1.30000000E+00  1.30000000E+00  1.30000000E+00  1.30000000E+00  1.30000000E+00
  1.30000000E+00  1.30000000E+00  1.30000000E+00  1.30000000E+00  1.30000000E+00
  1.30000000E+00
%FLAG SCREEN                                                                    
%FORMAT(5E16.8)                                                                 
  7.90000000E-01  7.20000000E-01  7.20000000E-01  7.20000000E-01  7.90000000E-01
  7.20000000E-01  7.20000000E-01  7.20000000E-01  7.20000000E-01  7.20000000E-01
  7.90000000E-01  7.20000000E-01  7.20000000E-01  8.50000000E-01  7.20000000E-01
  7.20000000E-01  7.90000000E-01  7.90000000E-01  7.20000000E-01  7.20000000E-01
  7.20000000E-01  7.20000000E-01  7.20000000E-01  7.20000000E-01  7.20000000E-01
  7.20000000E-01  8.50000000E-01  8.50000000E-01  8.50000000E-01  8.50000000E-01
  8.50000000E-01  8.50000000E-01  8.50000000E-01  8.50000000E-01  8.50000000E-01
  8.50000000E-01  8.50000000E-01  8.50000000E-01  8.50000000E-01  8.50000000E-01
  8.50000000E-01
%FLAG IPOL                                                                      
%FORMAT(1I8)                                                                    
       0
