*****
    41
  22.6830000  41.9490000   6.9580000  22.2620000  43.2470000   6.8970000
  21.6980000  43.5330000   8.1240000  21.8380000  42.3220000   8.8460000
  22.4370000  41.3610000   8.1370000  21.1050000  44.7930000   8.5500000
  21.0610000  45.9080000   7.7040000  20.4860000  47.1020000   8.1420000
  19.9890000  47.0720000   9.4350000  20.0550000  45.9390000  10.2370000
  20.6150000  44.7760000   9.8140000  19.4490000  46.3020000  11.4690000
  19.0600000  47.6180000  11.3290000  19.3840000  48.0950000  10.0960000
  19.2730000  45.4570000  12.6390000  19.6400000  44.1020000  12.7720000
  19.3410000  43.6090000  13.9790000  18.7670000  44.6510000  14.6150000
  18.7200000  45.7880000  13.8550000  18.3190000  44.5050000  15.9950000
  16.8150000  44.5570000  16.1080000  16.1850000  45.6040000  16.7960000
  14.7940000  45.6460000  16.9000000  14.0190000  44.6420000  16.3220000
  14.6330000  43.5940000  15.6390000  16.0240000  43.5500000  15.5330000
  23.1430000  41.4020000   6.2370000  22.4050000  43.8260000   5.9960000
  21.5250000  42.1110000   9.8610000  21.4700000  45.8670000   6.7000000
  20.4290000  47.9890000   7.5250000  18.5640000  48.3240000  11.9800000
  20.1110000  43.4500000  12.0470000  18.2930000  46.7040000  14.2380000
  18.6960000  43.5520000  16.3850000  18.7960000  45.3090000  16.5670000
  16.7710000  46.3970000  17.2560000  14.3120000  46.4610000  17.4340000
  12.9350000  44.6750000  16.4030000  14.0300000  42.8110000  15.1860000
  16.4900000  42.7270000  14.9930000
